SHARC-GAUSSIAN job                                                      
SP        RwB97XD                                                     def2SVP             
Number of atoms                            I               21
Info1-9                                    I   N=           9
          61          59           0           0           0         111
           1          18       -5802
Full Title                                 C   N=           2
SHARC-GAUSSIAN job      
Route                                      C   N=           4
#p nosym unit=AU wb97xd def2svp GFINPUT charge  
Charge                                     I                0
Multiplicity                               I                1
Number of electrons                        I               98
Number of alpha electrons                  I               49
Number of beta electrons                   I               49
Number of basis functions                  I              231
Number of independent functions            I              231
Number of point charges in /Mol/           I                0
Number of translation vectors              I                0
Atomic numbers                             I   N=          21
           7           7           6           6           6           6
           6           6           6           6           6           5
           9           9           1           1           1           1
           1           1           1
Nuclear charges                            R   N=          21
  7.00000000E+00  7.00000000E+00  6.00000000E+00  6.00000000E+00  6.00000000E+00
  6.00000000E+00  6.00000000E+00  6.00000000E+00  6.00000000E+00  6.00000000E+00
  6.00000000E+00  5.00000000E+00  9.00000000E+00  9.00000000E+00  1.00000000E+00
  1.00000000E+00  1.00000000E+00  1.00000000E+00  1.00000000E+00  1.00000000E+00
  1.00000000E+00
Current cartesian coordinates              R   N=          63
 -1.10934426E+01 -3.06795714E+00  2.02140659E+01 -1.24098201E+01 -3.77918580E+00
  1.57235683E+01 -1.10147714E+01 -2.92915675E+00  2.27685939E+01 -9.06336650E+00
 -1.38225529E+00  2.35826539E+01 -7.82070527E+00 -5.20738600E-01  2.14311875E+01
 -9.10963455E+00 -1.56796057E+00  1.93241542E+01 -8.73677836E+00 -1.25590064E+00
  1.67270979E+01 -1.03520917E+01 -2.30503502E+00  1.49399763E+01 -1.04781100E+01
 -2.11933163E+00  1.22730984E+01 -1.25277372E+01 -3.42500766E+00  1.14431704E+01
 -1.37068979E+01 -4.42819523E+00  1.36387506E+01 -1.29175839E+01 -4.61772909E+00
  1.85072388E+01 -1.24362574E+01 -7.19481286E+00  1.87823999E+01 -1.54291773E+01
 -4.13910871E+00  1.91613429E+01 -7.45958050E+00 -1.53158523E-01  1.62431050E+01
 -1.50983410E+01 -5.37969312E+00  1.36660439E+01 -6.41837164E+00  6.31778908E-01
  2.14702254E+01 -8.56866643E+00 -9.95530400E-01  2.52945587E+01 -1.31407492E+01
 -3.63751492E+00  9.75601915E+00 -1.21139533E+01 -4.02041123E+00  2.37521302E+01
 -9.21550646E+00 -1.03382003E+00  1.13143157E+01
Number of symbols in /Mol/                 I                0
Int Atom Types                             I   N=          21
           0           0           0           0           0           0
           0           0           0           0           0           0
           0           0           0           0           0           0
           0           0           0
Force Field                                I                0
Atom Types                                 C   N=          21
                                                            
                                                            
                                                            
                                                            
            
MM charges                                 R   N=          21
  0.00000000E+00  0.00000000E+00  0.00000000E+00  0.00000000E+00  0.00000000E+00
  0.00000000E+00  0.00000000E+00  0.00000000E+00  0.00000000E+00  0.00000000E+00
  0.00000000E+00  0.00000000E+00  0.00000000E+00  0.00000000E+00  0.00000000E+00
  0.00000000E+00  0.00000000E+00  0.00000000E+00  0.00000000E+00  0.00000000E+00
  0.00000000E+00
Integer atomic weights                     I   N=          21
          14          14          12          12          12          12
          12          12          12          12          12          11
          19          19           1           1           1           1
           1           1           1
Real atomic weights                        R   N=          21
  1.40030740E+01  1.40030740E+01  1.20000000E+01  1.20000000E+01  1.20000000E+01
  1.20000000E+01  1.20000000E+01  1.20000000E+01  1.20000000E+01  1.20000000E+01
  1.20000000E+01  1.10093053E+01  1.89984032E+01  1.89984032E+01  1.00782504E+00
  1.00782504E+00  1.00782504E+00  1.00782504E+00  1.00782504E+00  1.00782504E+00
  1.00782504E+00
Atom fragment info                         I   N=          21
           0           0           0           0           0           0
           0           0           0           0           0           0
           0           0           0           0           0           0
           0           0           0
Atom residue num                           I   N=          21
           0           0           0           0           0           0
           0           0           0           0           0           0
           0           0           0           0           0           0
           0           0           0
Nuclear spins                              I   N=          21
           2           2           0           0           0           0
           0           0           0           0           0           3
           1           1           1           1           1           1
           1           1           1
Nuclear ZEff                               R   N=          21
 -4.55000000E+00 -4.55000000E+00 -3.60000000E+00 -3.60000000E+00 -3.60000000E+00
 -3.60000000E+00 -3.60000000E+00 -3.60000000E+00 -3.60000000E+00 -3.60000000E+00
 -3.60000000E+00 -2.75000000E+00 -6.75000000E+00 -6.75000000E+00 -1.00000000E+00
 -1.00000000E+00 -1.00000000E+00 -1.00000000E+00 -1.00000000E+00 -1.00000000E+00
 -1.00000000E+00
Nuclear ZNuc                               R   N=          21
  7.00000000E+00  7.00000000E+00  6.00000000E+00  6.00000000E+00  6.00000000E+00
  6.00000000E+00  6.00000000E+00  6.00000000E+00  6.00000000E+00  6.00000000E+00
  6.00000000E+00  5.00000000E+00  9.00000000E+00  9.00000000E+00  1.00000000E+00
  1.00000000E+00  1.00000000E+00  1.00000000E+00  1.00000000E+00  1.00000000E+00
  1.00000000E+00
Nuclear QMom                               R   N=          21
  2.04400000E+00  2.04400000E+00  0.00000000E+00  0.00000000E+00  0.00000000E+00
  0.00000000E+00  0.00000000E+00  0.00000000E+00  0.00000000E+00  0.00000000E+00
  0.00000000E+00  4.05900000E+00  0.00000000E+00  0.00000000E+00  0.00000000E+00
  0.00000000E+00  0.00000000E+00  0.00000000E+00  0.00000000E+00  0.00000000E+00
  0.00000000E+00
Nuclear GFac                               R   N=          21
  4.03761000E-01  4.03761000E-01  0.00000000E+00  0.00000000E+00  0.00000000E+00
  0.00000000E+00  0.00000000E+00  0.00000000E+00  0.00000000E+00  0.00000000E+00
  0.00000000E+00  2.68863700E+00  2.62886700E+00  2.62886700E+00  2.79284600E+00
  2.79284600E+00  2.79284600E+00  2.79284600E+00  2.79284600E+00  2.79284600E+00
  2.79284600E+00
MicOpt                                     I   N=          21
          -1          -1          -1          -1          -1          -1
          -1          -1          -1          -1          -1          -1
          -1          -1          -1          -1          -1          -1
          -1          -1          -1
Number of residues                         I                0
Number of secondary structures             I                0
Number of contracted shells                I              105
Number of primitive shells                 I              203
Pure/Cartesian d shells                    I                0
Pure/Cartesian f shells                    I                0
Highest angular momentum                   I                2
Largest degree of contraction              I                5
Shell types                                I   N=         105
           0           0           0           1           1          -2
           0           0           0           1           1          -2
           0           0           0           1           1          -2
           0           0           0           1           1          -2
           0           0           0           1           1          -2
           0           0           0           1           1          -2
           0           0           0           1           1          -2
           0           0           0           1           1          -2
           0           0           0           1           1          -2
           0           0           0           1           1          -2
           0           0           0           1           1          -2
           0           0           0           1           1          -2
           0           0           0           1           1          -2
           0           0           0           1           1          -2
           0           0           1           0           0           1
           0           0           1           0           0           1
           0           0           1           0           0           1
           0           0           1
Number of primitives per shell             I   N=         105
           5           1           1           3           1           1
           5           1           1           3           1           1
           5           1           1           3           1           1
           5           1           1           3           1           1
           5           1           1           3           1           1
           5           1           1           3           1           1
           5           1           1           3           1           1
           5           1           1           3           1           1
           5           1           1           3           1           1
           5           1           1           3           1           1
           5           1           1           3           1           1
           5           1           1           3           1           1
           5           1           1           3           1           1
           5           1           1           3           1           1
           3           1           1           3           1           1
           3           1           1           3           1           1
           3           1           1           3           1           1
           3           1           1
Shell to atom map                          I   N=         105
           1           1           1           1           1           1
           2           2           2           2           2           2
           3           3           3           3           3           3
           4           4           4           4           4           4
           5           5           5           5           5           5
           6           6           6           6           6           6
           7           7           7           7           7           7
           8           8           8           8           8           8
           9           9           9           9           9           9
          10          10          10          10          10          10
          11          11          11          11          11          11
          12          12          12          12          12          12
          13          13          13          13          13          13
          14          14          14          14          14          14
          15          15          15          16          16          16
          17          17          17          18          18          18
          19          19          19          20          20          20
          21          21          21
Primitive exponents                        R   N=         203
  1.71284159E+03  2.57648127E+02  5.84582459E+01  1.61983679E+01  5.00526008E+00
  5.87318566E-01  1.87645923E-01  1.35714702E+01  2.92573729E+00  7.99277508E-01
  2.19543480E-01  1.00000000E+00  1.71284159E+03  2.57648127E+02  5.84582459E+01
  1.61983679E+01  5.00526008E+00  5.87318566E-01  1.87645923E-01  1.35714702E+01
  2.92573729E+00  7.99277508E-01  2.19543480E-01  1.00000000E+00  1.23840169E+03
  1.86290050E+02  4.22511763E+01  1.16765579E+01  3.59305065E+00  4.02451474E-01
  1.30901827E-01  9.46809706E+00  2.01035451E+00  5.47710047E-01  1.52686138E-01
  8.00000000E-01  1.23840169E+03  1.86290050E+02  4.22511763E+01  1.16765579E+01
  3.59305065E+00  4.02451474E-01  1.30901827E-01  9.46809706E+00  2.01035451E+00
  5.47710047E-01  1.52686138E-01  8.00000000E-01  1.23840169E+03  1.86290050E+02
  4.22511763E+01  1.16765579E+01  3.59305065E+00  4.02451474E-01  1.30901827E-01
  9.46809706E+00  2.01035451E+00  5.47710047E-01  1.52686138E-01  8.00000000E-01
  1.23840169E+03  1.86290050E+02  4.22511763E+01  1.16765579E+01  3.59305065E+00
  4.02451474E-01  1.30901827E-01  9.46809706E+00  2.01035451E+00  5.47710047E-01
  1.52686138E-01  8.00000000E-01  1.23840169E+03  1.86290050E+02  4.22511763E+01
  1.16765579E+01  3.59305065E+00  4.02451474E-01  1.30901827E-01  9.46809706E+00
  2.01035451E+00  5.47710047E-01  1.52686138E-01  8.00000000E-01  1.23840169E+03
  1.86290050E+02  4.22511763E+01  1.16765579E+01  3.59305065E+00  4.02451474E-01
  1.30901827E-01  9.46809706E+00  2.01035451E+00  5.47710047E-01  1.52686138E-01
  8.00000000E-01  1.23840169E+03  1.86290050E+02  4.22511763E+01  1.16765579E+01
  3.59305065E+00  4.02451474E-01  1.30901827E-01  9.46809706E+00  2.01035451E+00
  5.47710047E-01  1.52686138E-01  8.00000000E-01  1.23840169E+03  1.86290050E+02
  4.22511763E+01  1.16765579E+01  3.59305065E+00  4.02451474E-01  1.30901827E-01
  9.46809706E+00  2.01035451E+00  5.47710047E-01  1.52686138E-01  8.00000000E-01
  1.23840169E+03  1.86290050E+02  4.22511763E+01  1.16765579E+01  3.59305065E+00
  4.02451474E-01  1.30901827E-01  9.46809706E+00  2.01035451E+00  5.47710047E-01
  1.52686138E-01  8.00000000E-01  8.39318301E+02  1.26264648E+02  2.86206008E+01
  7.87937227E+00  2.40888572E+00  2.51051090E-01  8.36488661E-02  6.03322236E+00
  1.24991579E+00  3.38716764E-01  9.64156324E-02  5.00000000E-01  2.89483260E+03
  4.35419391E+02  9.88433289E+01  2.74851980E+01  8.54054982E+00  1.06545780E+00
  3.32473467E-01  2.26966339E+01  4.98723393E+00  1.34916140E+00  3.48298820E-01
  1.40000000E+00  2.89483260E+03  4.35419391E+02  9.88433289E+01  2.74851980E+01
  8.54054982E+00  1.06545780E+00  3.32473467E-01  2.26966339E+01  4.98723393E+00
  1.34916140E+00  3.48298820E-01  1.40000000E+00  1.30107010E+01  1.96225720E+00
  4.44537960E-01  1.21949620E-01  8.00000000E-01  1.30107010E+01  1.96225720E+00
  4.44537960E-01  1.21949620E-01  8.00000000E-01  1.30107010E+01  1.96225720E+00
  4.44537960E-01  1.21949620E-01  8.00000000E-01  1.30107010E+01  1.96225720E+00
  4.44537960E-01  1.21949620E-01  8.00000000E-01  1.30107010E+01  1.96225720E+00
  4.44537960E-01  1.21949620E-01  8.00000000E-01  1.30107010E+01  1.96225720E+00
  4.44537960E-01  1.21949620E-01  8.00000000E-01  1.30107010E+01  1.96225720E+00
  4.44537960E-01  1.21949620E-01  8.00000000E-01
Contraction coefficients                   R   N=         203
 -5.44779958E-03 -4.06271746E-02 -1.81119623E-01 -4.68439756E-01 -4.46168463E-01
  1.00000000E+00  1.00000000E+00 -5.88481170E-02 -3.20246248E-01 -7.53282265E-01
  1.00000000E+00  1.00000000E+00 -5.44779958E-03 -4.06271746E-02 -1.81119623E-01
 -4.68439756E-01 -4.46168463E-01  1.00000000E+00  1.00000000E+00 -5.88481170E-02
 -3.20246248E-01 -7.53282265E-01  1.00000000E+00  1.00000000E+00  5.51736505E-03
  4.10888286E-02  1.82253821E-01  4.68284594E-01  4.45758173E-01  1.00000000E+00
  1.00000000E+00  5.68883320E-02  3.12940593E-01  7.60650165E-01  1.00000000E+00
  1.00000000E+00  5.51736505E-03  4.10888286E-02  1.82253821E-01  4.68284594E-01
  4.45758173E-01  1.00000000E+00  1.00000000E+00  5.68883320E-02  3.12940593E-01
  7.60650165E-01  1.00000000E+00  1.00000000E+00  5.51736505E-03  4.10888286E-02
  1.82253821E-01  4.68284594E-01  4.45758173E-01  1.00000000E+00  1.00000000E+00
  5.68883320E-02  3.12940593E-01  7.60650165E-01  1.00000000E+00  1.00000000E+00
  5.51736505E-03  4.10888286E-02  1.82253821E-01  4.68284594E-01  4.45758173E-01
  1.00000000E+00  1.00000000E+00  5.68883320E-02  3.12940593E-01  7.60650165E-01
  1.00000000E+00  1.00000000E+00  5.51736505E-03  4.10888286E-02  1.82253821E-01
  4.68284594E-01  4.45758173E-01  1.00000000E+00  1.00000000E+00  5.68883320E-02
  3.12940593E-01  7.60650165E-01  1.00000000E+00  1.00000000E+00  5.51736505E-03
  4.10888286E-02  1.82253821E-01  4.68284594E-01  4.45758173E-01  1.00000000E+00
  1.00000000E+00  5.68883320E-02  3.12940593E-01  7.60650165E-01  1.00000000E+00
  1.00000000E+00  5.51736505E-03  4.10888286E-02  1.82253821E-01  4.68284594E-01
  4.45758173E-01  1.00000000E+00  1.00000000E+00  5.68883320E-02  3.12940593E-01
  7.60650165E-01  1.00000000E+00  1.00000000E+00  5.51736505E-03  4.10888286E-02
  1.82253821E-01  4.68284594E-01  4.45758173E-01  1.00000000E+00  1.00000000E+00
  5.68883320E-02  3.12940593E-01  7.60650165E-01  1.00000000E+00  1.00000000E+00
  5.51736505E-03  4.10888286E-02  1.82253821E-01  4.68284594E-01  4.45758173E-01
  1.00000000E+00  1.00000000E+00  5.68883320E-02  3.12940593E-01  7.60650165E-01
  1.00000000E+00  1.00000000E+00 -5.62888360E-03 -4.18327946E-02 -1.84174881E-01
 -4.68396550E-01 -4.44579309E-01  1.00000000E+00  1.00000000E+00 -5.40325003E-02
 -3.01940344E-01 -7.71707917E-01  1.00000000E+00  1.00000000E+00 -5.34932118E-03
 -3.99677344E-02 -1.79412618E-01 -4.68324687E-01 -4.47241605E-01  1.00000000E+00
  1.00000000E+00 -6.47821482E-02 -3.40357854E-01 -7.34858154E-01  1.00000000E+00
  1.00000000E+00 -5.34932118E-03 -3.99677344E-02 -1.79412618E-01 -4.68324687E-01
 -4.47241605E-01  1.00000000E+00  1.00000000E+00 -6.47821482E-02 -3.40357854E-01
 -7.34858154E-01  1.00000000E+00  1.00000000E+00  3.34854848E-02  2.34721871E-01
  8.13770285E-01  1.00000000E+00  1.00000000E+00  3.34854848E-02  2.34721871E-01
  8.13770285E-01  1.00000000E+00  1.00000000E+00  3.34854848E-02  2.34721871E-01
  8.13770285E-01  1.00000000E+00  1.00000000E+00  3.34854848E-02  2.34721871E-01
  8.13770285E-01  1.00000000E+00  1.00000000E+00  3.34854848E-02  2.34721871E-01
  8.13770285E-01  1.00000000E+00  1.00000000E+00  3.34854848E-02  2.34721871E-01
  8.13770285E-01  1.00000000E+00  1.00000000E+00  3.34854848E-02  2.34721871E-01
  8.13770285E-01  1.00000000E+00  1.00000000E+00
Coordinates of each shell                  R   N=         315
 -1.10934426E+01 -3.06795714E+00  2.02140659E+01 -1.10934426E+01 -3.06795714E+00
  2.02140659E+01 -1.10934426E+01 -3.06795714E+00  2.02140659E+01 -1.10934426E+01
 -3.06795714E+00  2.02140659E+01 -1.10934426E+01 -3.06795714E+00  2.02140659E+01
 -1.10934426E+01 -3.06795714E+00  2.02140659E+01 -1.24098201E+01 -3.77918580E+00
  1.57235683E+01 -1.24098201E+01 -3.77918580E+00  1.57235683E+01 -1.24098201E+01
 -3.77918580E+00  1.57235683E+01 -1.24098201E+01 -3.77918580E+00  1.57235683E+01
 -1.24098201E+01 -3.77918580E+00  1.57235683E+01 -1.24098201E+01 -3.77918580E+00
  1.57235683E+01 -1.10147714E+01 -2.92915675E+00  2.27685939E+01 -1.10147714E+01
 -2.92915675E+00  2.27685939E+01 -1.10147714E+01 -2.92915675E+00  2.27685939E+01
 -1.10147714E+01 -2.92915675E+00  2.27685939E+01 -1.10147714E+01 -2.92915675E+00
  2.27685939E+01 -1.10147714E+01 -2.92915675E+00  2.27685939E+01 -9.06336650E+00
 -1.38225529E+00  2.35826539E+01 -9.06336650E+00 -1.38225529E+00  2.35826539E+01
 -9.06336650E+00 -1.38225529E+00  2.35826539E+01 -9.06336650E+00 -1.38225529E+00
  2.35826539E+01 -9.06336650E+00 -1.38225529E+00  2.35826539E+01 -9.06336650E+00
 -1.38225529E+00  2.35826539E+01 -7.82070527E+00 -5.20738600E-01  2.14311875E+01
 -7.82070527E+00 -5.20738600E-01  2.14311875E+01 -7.82070527E+00 -5.20738600E-01
  2.14311875E+01 -7.82070527E+00 -5.20738600E-01  2.14311875E+01 -7.82070527E+00
 -5.20738600E-01  2.14311875E+01 -7.82070527E+00 -5.20738600E-01  2.14311875E+01
 -9.10963455E+00 -1.56796057E+00  1.93241542E+01 -9.10963455E+00 -1.56796057E+00
  1.93241542E+01 -9.10963455E+00 -1.56796057E+00  1.93241542E+01 -9.10963455E+00
 -1.56796057E+00  1.93241542E+01 -9.10963455E+00 -1.56796057E+00  1.93241542E+01
 -9.10963455E+00 -1.56796057E+00  1.93241542E+01 -8.73677836E+00 -1.25590064E+00
  1.67270979E+01 -8.73677836E+00 -1.25590064E+00  1.67270979E+01 -8.73677836E+00
 -1.25590064E+00  1.67270979E+01 -8.73677836E+00 -1.25590064E+00  1.67270979E+01
 -8.73677836E+00 -1.25590064E+00  1.67270979E+01 -8.73677836E+00 -1.25590064E+00
  1.67270979E+01 -1.03520917E+01 -2.30503502E+00  1.49399763E+01 -1.03520917E+01
 -2.30503502E+00  1.49399763E+01 -1.03520917E+01 -2.30503502E+00  1.49399763E+01
 -1.03520917E+01 -2.30503502E+00  1.49399763E+01 -1.03520917E+01 -2.30503502E+00
  1.49399763E+01 -1.03520917E+01 -2.30503502E+00  1.49399763E+01 -1.04781100E+01
 -2.11933163E+00  1.22730984E+01 -1.04781100E+01 -2.11933163E+00  1.22730984E+01
 -1.04781100E+01 -2.11933163E+00  1.22730984E+01 -1.04781100E+01 -2.11933163E+00
  1.22730984E+01 -1.04781100E+01 -2.11933163E+00  1.22730984E+01 -1.04781100E+01
 -2.11933163E+00  1.22730984E+01 -1.25277372E+01 -3.42500766E+00  1.14431704E+01
 -1.25277372E+01 -3.42500766E+00  1.14431704E+01 -1.25277372E+01 -3.42500766E+00
  1.14431704E+01 -1.25277372E+01 -3.42500766E+00  1.14431704E+01 -1.25277372E+01
 -3.42500766E+00  1.14431704E+01 -1.25277372E+01 -3.42500766E+00  1.14431704E+01
 -1.37068979E+01 -4.42819523E+00  1.36387506E+01 -1.37068979E+01 -4.42819523E+00
  1.36387506E+01 -1.37068979E+01 -4.42819523E+00  1.36387506E+01 -1.37068979E+01
 -4.42819523E+00  1.36387506E+01 -1.37068979E+01 -4.42819523E+00  1.36387506E+01
 -1.37068979E+01 -4.42819523E+00  1.36387506E+01 -1.29175839E+01 -4.61772909E+00
  1.85072388E+01 -1.29175839E+01 -4.61772909E+00  1.85072388E+01 -1.29175839E+01
 -4.61772909E+00  1.85072388E+01 -1.29175839E+01 -4.61772909E+00  1.85072388E+01
 -1.29175839E+01 -4.61772909E+00  1.85072388E+01 -1.29175839E+01 -4.61772909E+00
  1.85072388E+01 -1.24362574E+01 -7.19481286E+00  1.87823999E+01 -1.24362574E+01
 -7.19481286E+00  1.87823999E+01 -1.24362574E+01 -7.19481286E+00  1.87823999E+01
 -1.24362574E+01 -7.19481286E+00  1.87823999E+01 -1.24362574E+01 -7.19481286E+00
  1.87823999E+01 -1.24362574E+01 -7.19481286E+00  1.87823999E+01 -1.54291773E+01
 -4.13910871E+00  1.91613429E+01 -1.54291773E+01 -4.13910871E+00  1.91613429E+01
 -1.54291773E+01 -4.13910871E+00  1.91613429E+01 -1.54291773E+01 -4.13910871E+00
  1.91613429E+01 -1.54291773E+01 -4.13910871E+00  1.91613429E+01 -1.54291773E+01
 -4.13910871E+00  1.91613429E+01 -7.45958050E+00 -1.53158523E-01  1.62431050E+01
 -7.45958050E+00 -1.53158523E-01  1.62431050E+01 -7.45958050E+00 -1.53158523E-01
  1.62431050E+01 -1.50983410E+01 -5.37969312E+00  1.36660439E+01 -1.50983410E+01
 -5.37969312E+00  1.36660439E+01 -1.50983410E+01 -5.37969312E+00  1.36660439E+01
 -6.41837164E+00  6.31778908E-01  2.14702254E+01 -6.41837164E+00  6.31778908E-01
  2.14702254E+01 -6.41837164E+00  6.31778908E-01  2.14702254E+01 -8.56866643E+00
 -9.95530400E-01  2.52945587E+01 -8.56866643E+00 -9.95530400E-01  2.52945587E+01
 -8.56866643E+00 -9.95530400E-01  2.52945587E+01 -1.31407492E+01 -3.63751492E+00
  9.75601915E+00 -1.31407492E+01 -3.63751492E+00  9.75601915E+00 -1.31407492E+01
 -3.63751492E+00  9.75601915E+00 -1.21139533E+01 -4.02041123E+00  2.37521302E+01
 -1.21139533E+01 -4.02041123E+00  2.37521302E+01 -1.21139533E+01 -4.02041123E+00
  2.37521302E+01 -9.21550646E+00 -1.03382003E+00  1.13143157E+01 -9.21550646E+00
 -1.03382003E+00  1.13143157E+01 -9.21550646E+00 -1.03382003E+00  1.13143157E+01
Num ILSW                                   I              100
ILSW                                       I   N=         100
           0           0           0           0           2           0
           0           0           0           0        4639          -1
           5           1           0           0           0           0
           0           0           0           0           0           0
           1           1           0           0           0           0
           0           0      100000           0          -1           0
           0           0           0           0           0           0
           0           0           0           1           0           0
           0 -2000000000           1           0           0           0
           0           0         121          52           0           0
           0           1          58           0           0           0
           0           0           0          21           0           1
           0           0           0           0           0           0
           0           0           0           0           0           0
           0           0           0           0           0           0
           0           0           0           0           0           0
           0           0           0           0
Num RLSW                                   I               52
RLSW                                       R   N=          52
  1.00000000E+00  1.00000000E+00  1.00000000E+00  1.00000000E+00  1.00000000E+00
  0.00000000E+00  2.00000000E-01  2.22036000E-01  0.00000000E+00  7.77964000E-01
  0.00000000E+00  2.00000000E-01  0.00000000E+00  0.00000000E+00  1.00000000E+00
  0.00000000E+00  0.00000000E+00  1.00000000E+00  0.00000000E+00  0.00000000E+00
  0.00000000E+00  0.00000000E+00  1.00000000E+00  0.00000000E+00  0.00000000E+00
  0.00000000E+00  0.00000000E+00  1.00000000E+00  0.00000000E+00  0.00000000E+00
  0.00000000E+00  0.00000000E+00  1.00000000E+00  0.00000000E+00  0.00000000E+00
  0.00000000E+00  0.00000000E+00  0.00000000E+00  1.00000000E+00  1.00000000E+00
  0.00000000E+00  1.00000000E+00  0.00000000E+00  0.00000000E+00  0.00000000E+00
  0.00000000E+00  0.00000000E+00  0.00000000E+00  0.00000000E+00  0.00000000E+00
  0.00000000E+00  0.00000000E+00
ECP-MxAtEC                                 I           250000
ECP-MaxLECP                                I               10
ECP-MaxAtL                                 I          2250000
ECP-MxTECP                                 I         11250000
ECP-LenNCZ                                 I                0
ECP-KFirst                                 I   N=         210
           0           0           0           0           0           0
           0           0           0           0           0           0
           0           0           0           0           0           0
           0           0           0           0           0           0
           0           0           0           0           0           0
           0           0           0           0           0           0
           0           0           0           0           0           0
           0           0           0           0           0           0
           0           0           0           0           0           0
           0           0           0           0           0           0
           0           0           0           0           0           0
           0           0           0           0           0           0
           0           0           0           0           0           0
           0           0           0           0           0           0
           0           0           0           0           0           0
           0           0           0           0           0           0
           0           0           0           0           0           0
           0           0           0           0           0           0
           0           0           0           0           0           0
           0           0           0           0           0           0
           0           0           0           0           0           0
           0           0           0           0           0           0
           0           0           0           0           0           0
           0           0           0           0           0           0
           0           0           0           0           0           0
           0           0           0           0           0           0
           0           0           0           0           0           0
           0           0           0           0           0           0
           0           0           0           0           0           0
           0           0           0           0           0           0
           0           0           0           0           0           0
           0           0           0           0           0           0
           0           0           0           0           0           0
           0           0           0           0           0           0
           0           0           0           0           0           0
ECP-KLast                                  I   N=         210
           0           0           0           0           0           0
           0           0           0           0           0           0
           0           0           0           0           0           0
           0           0           0           0           0           0
           0           0           0           0           0           0
           0           0           0           0           0           0
           0           0           0           0           0           0
           0           0           0           0           0           0