 Entering Gaussian System, Link 0=/usr/license/gaussian16_new/rev_c01/avx2/g16/g16
 Initial command:
 /usr/license/gaussian16_new/rev_c01/avx2/g16/l1.exe "./Gau-66823.inp" -scrdir="./"
 Entering Link 1 = /usr/license/gaussian16_new/rev_c01/avx2/g16/l1.exe PID=     66825.
  
 Copyright (c) 1988-2019, Gaussian, Inc.  All Rights Reserved.
  
 This is part of the Gaussian(R) 16 program.  It is based on
 the Gaussian(R) 09 system (copyright 2009, Gaussian, Inc.),
 the Gaussian(R) 03 system (copyright 2003, Gaussian, Inc.),
 the Gaussian(R) 98 system (copyright 1998, Gaussian, Inc.),
 the Gaussian(R) 94 system (copyright 1995, Gaussian, Inc.),
 the Gaussian 92(TM) system (copyright 1992, Gaussian, Inc.),
 the Gaussian 90(TM) system (copyright 1990, Gaussian, Inc.),
 the Gaussian 88(TM) system (copyright 1988, Gaussian, Inc.),
 the Gaussian 86(TM) system (copyright 1986, Carnegie Mellon
 University), and the Gaussian 82(TM) system (copyright 1983,
 Carnegie Mellon University). Gaussian is a federally registered
 trademark of Gaussian, Inc.
  
 This software contains proprietary and confidential information,
 including trade secrets, belonging to Gaussian, Inc.
  
 This software is provided under written license and may be
 used, copied, transmitted, or stored only in accord with that
 written license.
  
 The following legend is applicable only to US Government
 contracts under FAR:
  
                    RESTRICTED RIGHTS LEGEND
  
 Use, reproduction and disclosure by the US Government is
 subject to restrictions as set forth in subparagraphs (a)
 and (c) of the Commercial Computer Software - Restricted
 Rights clause in FAR 52.227-19.
  
 Gaussian, Inc.
 340 Quinnipiac St., Bldg. 40, Wallingford CT 06492
  
  
 ---------------------------------------------------------------
 Warning -- This program may not be used in any manner that
 competes with the business of Gaussian, Inc. or will provide
 assistance to any competitor of Gaussian, Inc.  The licensee
 of this program is prohibited from giving any competitor of
 Gaussian, Inc. access to this program.  By using this program,
 the user acknowledges that Gaussian, Inc. is engaged in the
 business of creating and licensing software in the field of
 computational chemistry and represents and warrants to the
 licensee that it is not a competitor of Gaussian, Inc. and that
 it will not use this program in any manner prohibited above.
 ---------------------------------------------------------------
  

 Cite this work as:
 Gaussian 16, Revision C.01,
 M. J. Frisch, G. W. Trucks, H. B. Schlegel, G. E. Scuseria, 
 M. A. Robb, J. R. Cheeseman, G. Scalmani, V. Barone, 
 G. A. Petersson, H. Nakatsuji, X. Li, M. Caricato, A. V. Marenich, 
 J. Bloino, B. G. Janesko, R. Gomperts, B. Mennucci, H. P. Hratchian, 
 J. V. Ortiz, A. F. Izmaylov, J. L. Sonnenberg, D. Williams-Young, 
 F. Ding, F. Lipparini, F. Egidi, J. Goings, B. Peng, A. Petrone, 
 T. Henderson, D. Ranasinghe, V. G. Zakrzewski, J. Gao, N. Rega, 
 G. Zheng, W. Liang, M. Hada, M. Ehara, K. Toyota, R. Fukuda, 
 J. Hasegawa, M. Ishida, T. Nakajima, Y. Honda, O. Kitao, H. Nakai, 
 T. Vreven, K. Throssell, J. A. Montgomery, Jr., J. E. Peralta, 
 F. Ogliaro, M. J. Bearpark, J. J. Heyd, E. N. Brothers, K. N. Kudin, 
 V. N. Staroverov, T. A. Keith, R. Kobayashi, J. Normand, 
 K. Raghavachari, A. P. Rendell, J. C. Burant, S. S. Iyengar, 
 J. Tomasi, M. Cossi, J. M. Millam, M. Klene, C. Adamo, R. Cammi, 
 J. W. Ochterski, R. L. Martin, K. Morokuma, O. Farkas, 
 J. B. Foresman, and D. J. Fox, Gaussian, Inc., Wallingford CT, 2019.
 
 ******************************************
 Gaussian 16:  ES64L-G16RevC.01  3-Jul-2019
                 6-May-2025 
 ******************************************
 %MEM=20000MB
 %NProcShared=20
 Will use up to   20 processors via shared memory.
 %Chk=GAUSSIAN.chk
 Default route: IOP(99/10=0)
 ----------------------------------------------
 #p nosym unit=AU wb97xd def2svp GFINPUT charge
 ----------------------------------------------
 1/18=10,20=1,28=-2,38=1,125=101,172=1/1;
 2/12=2,15=1,17=6,18=5,40=1/2;
 3/5=43,7=101,11=2,24=10,25=1,30=1,74=-58/1,2,3;
 4//1;
 5/5=2,38=5/2;
 6/7=2,8=2,9=2,10=2,28=1/1;
 99/5=1,9=1/99;
 Leave Link    1 at Tue May  6 19:25:37 2025, MaxMem=  2621440000 cpu:               1.4 elap:               0.1
 (Enter /usr/license/gaussian16_new/rev_c01/avx2/g16/l101.exe)
 ------------------
 SHARC-GAUSSIAN job
 ------------------
 Symbolic Z-matrix:
 Charge =  0 Multiplicity = 1
 N                    -11.09344  -3.06796   20.21407 
 N                    -12.40982  -3.77919   15.72357 
 C                    -11.01477  -2.92916   22.76859 
 C                    -9.06337  -1.38226   23.58265 
 C                    -7.82071  -0.52074   21.43119 
 C                    -9.10963  -1.56796   19.32415 
 C                    -8.73678  -1.2559    16.7271 
 C                    -10.35209  -2.30504   14.93998 
 C                    -10.47811  -2.11933   12.2731 
 C                    -12.52774  -3.42501   11.44317 
 C                    -13.7069  -4.4282    13.63875 
 B                    -12.91758  -4.61773   18.50724 
 F                    -12.43626  -7.19481   18.7824 
 F                    -15.42918  -4.13911   19.16134 
 H                    -7.45958  -0.15316   16.24311 
 H                    -15.09834  -5.37969   13.66604 
 H                    -6.41837   0.63178   21.47023 
 H                    -8.56867  -0.99553   25.29456 
 H                    -13.14075  -3.63751   9.75602 
 H                    -12.11395  -4.02041   23.75213 
 H                    -9.21551  -1.03382   11.31432 
 
 ITRead=  0  0  0  0  0  0  0  0  0  0  0  0  0  0  0  0  0  0  0  0
 ITRead=  0
 MicOpt= -1 -1 -1 -1 -1 -1 -1 -1 -1 -1 -1 -1 -1 -1 -1 -1 -1 -1 -1 -1
 MicOpt= -1
 NAtoms=     21 NQM=       21 NQMF=       0 NMMI=      0 NMMIF=      0
                NMic=       0 NMicF=      0.
                    Isotopes and Nuclear Properties:
 (Nuclear quadrupole moments (NQMom) in fm**2, nuclear magnetic moments (NMagM)
  in nuclear magnetons)

  Atom         1           2           3           4           5           6           7           8           9          10
 IAtWgt=          14          14          12          12          12          12          12          12          12          12
 AtmWgt=  14.0030740  14.0030740  12.0000000  12.0000000  12.0000000  12.0000000  12.0000000  12.0000000  12.0000000  12.0000000
 NucSpn=           2           2           0           0           0           0           0           0           0           0
 AtZEff=  -0.0000000  -0.0000000  -0.0000000  -0.0000000  -0.0000000  -0.0000000  -0.0000000  -0.0000000  -0.0000000  -0.0000000
 NQMom=    2.0440000   2.0440000   0.0000000   0.0000000   0.0000000   0.0000000   0.0000000   0.0000000   0.0000000   0.0000000
 NMagM=    0.4037610   0.4037610   0.0000000   0.0000000   0.0000000   0.0000000   0.0000000   0.0000000   0.0000000   0.0000000
 AtZNuc=   7.0000000   7.0000000   6.0000000   6.0000000   6.0000000   6.0000000   6.0000000   6.0000000   6.0000000   6.0000000

  Atom        11          12          13          14          15          16          17          18          19          20
 IAtWgt=          12          11          19          19           1           1           1           1           1           1
 AtmWgt=  12.0000000  11.0093053  18.9984032  18.9984032   1.0078250   1.0078250   1.0078250   1.0078250   1.0078250   1.0078250
 NucSpn=           0           3           1           1           1           1           1           1           1           1
 AtZEff=  -0.0000000  -0.0000000  -0.0000000  -0.0000000  -0.0000000  -0.0000000  -0.0000000  -0.0000000  -0.0000000  -0.0000000
 NQMom=    0.0000000   4.0590000   0.0000000   0.0000000   0.0000000   0.0000000   0.0000000   0.0000000   0.0000000   0.0000000
 NMagM=    0.0000000   2.6886370   2.6288670   2.6288670   2.7928460   2.7928460   2.7928460   2.7928460   2.7928460   2.7928460
 AtZNuc=   6.0000000   5.0000000   9.0000000   9.0000000   1.0000000   1.0000000   1.0000000   1.0000000   1.0000000   1.0000000

  Atom        21
 IAtWgt=           1
 AtmWgt=   1.0078250
 NucSpn=           1
 AtZEff=  -0.0000000
 NQMom=    0.0000000
 NMagM=    2.7928460
 AtZNuc=   1.0000000
 Background charge distribution read from input stream:
 Point Charges:
 XYZ=   -0.7994    3.4420   10.6968 Q=    0.0197 A=    0.0000 R=    0.0000 C=    0.0000
 XYZ=   -1.4960    3.0656    8.3206 Q=   -0.0153 A=    0.0000 R=    0.0000 C=    0.0000
 XYZ=   -0.7578    3.5155   12.0486 Q=   -0.0585 A=    0.0000 R=    0.0000 C=    0.0000
 XYZ=    0.2749    4.3340   12.4794 Q=   -0.2211 A=    0.0000 R=    0.0000 C=    0.0000
 XYZ=    0.9325    4.7899   11.3409 Q=   -0.1749 A=    0.0000 R=    0.0000 C=    0.0000
 XYZ=    0.2504    4.2358   10.2259 Q=    0.0080 A=    0.0000 R=    0.0000 C=    0.0000
 XYZ=    0.4477    4.4009    8.8516 Q=   -0.0884 A=    0.0000 R=    0.0000 C=    0.0000
 XYZ=   -0.4071    3.8457    7.9059 Q=    0.0288 A=    0.0000 R=    0.0000 C=    0.0000
 XYZ=   -0.4738    3.9440    6.4946 Q=   -0.1611 A=    0.0000 R=    0.0000 C=    0.0000
 XYZ=   -1.5584    3.2531    6.0555 Q=   -0.2328 A=    0.0000 R=    0.0000 C=    0.0000
 XYZ=   -2.1824    2.7222    7.2173 Q=   -0.0191 A=    0.0000 R=    0.0000 C=    0.0000
 XYZ=   -1.7647    2.6219    9.7936 Q=    0.3708 A=    0.0000 R=    0.0000 C=    0.0000
 XYZ=   -1.5100    1.2582    9.9392 Q=   -0.3388 A=    0.0000 R=    0.0000 C=    0.0000
 XYZ=   -3.0938    2.8752   10.1397 Q=   -0.3447 A=    0.0000 R=    0.0000 C=    0.0000
 XYZ=    1.1236    4.9845    8.5955 Q=    0.1813 A=    0.0000 R=    0.0000 C=    0.0000
 XYZ=   -2.9187    2.2187    7.2318 Q=    0.1735 A=    0.0000 R=    0.0000 C=    0.0000
 XYZ=    1.6745    5.3998   11.3616 Q=    0.1764 A=    0.0000 R=    0.0000 C=    0.0000
 XYZ=    0.5367    4.5387   13.3853 Q=    0.1741 A=    0.0000 R=    0.0000 C=    0.0000
 XYZ=   -1.8828    3.1406    5.1627 Q=    0.1776 A=    0.0000 R=    0.0000 C=    0.0000
 XYZ=   -1.3394    2.9380   12.5691 Q=    0.1817 A=    0.0000 R=    0.0000 C=    0.0000
 XYZ=    0.1944    4.5184    5.9873 Q=    0.1629 A=    0.0000 R=    0.0000 C=    0.0000
 Pt Chg Charge=              0.0000 electrons
 Pt Chg Dipole moment (Debye):
    X=              3.4718    Y=              3.5712    Z=             -1.6278  Tot=              5.2399
 Pt Chg Quadrupole moment (Debye-Ang):
   XX=             -3.0397   YY=             23.2577   ZZ=            -11.8942
   XY=             13.4205   XZ=             38.9443   YZ=             30.1050
 Pt Chg Traceless Quadrupole moment (Debye-Ang):
   XX=             -5.8143   YY=             20.4831   ZZ=            -14.6688
   XY=             13.4205   XZ=             38.9443   YZ=             30.1050
 Pt Chg Octapole moment (Debye-Ang**2):
  XXX=             26.5177  YYY=            136.2594  ZZZ=             96.7707  XYY=             65.3443
  XXY=             -2.0054  XXZ=            -50.0016  XZZ=            410.5417  YZZ=            320.0051
  YYZ=            208.6908  XYZ=            141.1011
 Pt Chg Hexadecapole moment (Debye-Ang**3):
 XXXX=            -70.5368 YYYY=            786.6004 ZZZZ=           4929.5073 XXXY=             94.7310
 XXXZ=            336.5722 YYYX=            331.8657 YYYZ=           1252.0823 ZZZX=           4195.4937
 ZZZY=           4030.0945 XXYY=             24.6370 XXZZ=           -601.5609 YYZZ=           2156.9978
 XXYZ=            -58.8404 YYXZ=            662.9270 ZZXY=           1453.7041
 Leave Link  101 at Tue May  6 19:25:37 2025, MaxMem=  2621440000 cpu:               0.8 elap:               0.1
 (Enter /usr/license/gaussian16_new/rev_c01/avx2/g16/l202.exe)
                          Input orientation:                          
 ---------------------------------------------------------------------
 Center     Atomic      Atomic             Coordinates (Angstroms)
 Number     Number       Type             X           Y           Z
 ---------------------------------------------------------------------
      1          7           0       -5.870397   -1.623493   10.696823
      2          7           0       -6.566994   -1.999859    8.320554
      3          6           0       -5.828766   -1.550043   12.048621
      4          6           0       -4.796127   -0.731458   12.479403
      5          6           0       -4.138539   -0.275563   11.340896
      6          6           0       -4.820611   -0.829729   10.225902
      7          6           0       -4.623304   -0.664594    8.851599
      8          6           0       -5.478091   -1.219772    7.905895
      9          6           0       -5.544777   -1.121502    6.494644
     10          6           0       -6.629393   -1.812436    6.055465
     11          6           0       -7.253378   -2.343300    7.217316
     12          5           0       -6.835691   -2.443597    9.793609
     13          9           0       -6.580984   -3.807331    9.939218
     14          9           0       -8.164769   -2.190322   10.139746
     15          1           0       -3.947440   -0.081048    8.595481
     16          1           0       -7.989698   -2.846811    7.231759
     17          1           0       -3.396456    0.334323   11.361554
     18          1           0       -4.534343   -0.526812   13.385304
     19          1           0       -6.953785   -1.924890    5.162663
     20          1           0       -6.410428   -2.127510   12.569086
     21          1           0       -4.876636   -0.547074    5.987278
 ---------------------------------------------------------------------
                    Distance matrix (angstroms):
                    1          2          3          4          5
     1  N    0.000000
     2  N    2.504706   0.000000
     3  C    1.354432   3.826983   0.000000
     4  C    2.264371   4.694767   1.386361   0.000000
     5  C    2.287155   4.241822   2.232049   1.391568   0.000000
     6  C    1.397812   2.837148   2.203981   2.255776   1.419695
     7  C    2.424784   2.417203   3.529605   3.632534   2.565724
     8  C    2.847134   1.402208   4.170639   4.649785   3.805938
     9  C    4.244565   2.269446   5.577720   6.044001   5.116569
    10  C    4.706801   2.273686   6.052088   6.767301   6.041698
    11  C    3.812837   1.343953   5.099047   6.027079   5.566118
    12  B    1.555686   1.561727   2.626293   3.782160   3.790659
    13  F    2.418274   2.426360   3.179742   4.370269   4.517037
    14  F    2.428121   2.428708   3.083938   4.353163   4.617314
    15  H    3.239219   3.258755   4.197798   4.028418   2.758923
    16  H    4.242006   1.981638   5.436303   6.497029   6.190941
    17  H    3.224174   4.974776   3.152622   2.084359   0.960768
    18  H    3.196198   5.652719   2.123500   0.964918   2.097473
    19  H    5.647256   3.182374   6.987317   7.721040   6.986877
    20  H    2.012718   4.253332   0.970918   2.136111   3.177993
    21  H    4.932145   3.226774   6.217104   6.495242   5.411075
                    6          7          8          9         10
     6  C    0.000000
     7  C    1.398180   0.000000
     8  C    2.442713   1.390410   0.000000
     9  C    3.812064   2.571598   1.416239   0.000000
    10  C    4.650801   3.627713   2.258504   1.358919   0.000000
    11  C    4.154617   3.522247   2.210905   2.221343   1.421644
    12  B    2.617631   2.991135   2.627601   3.781212   3.796662
    13  F    3.470910   3.859044   3.470769   4.489153   4.366404
    14  F    3.611375   4.065605   3.626334   4.614488   4.379672
    15  H    1.995300   0.928932   2.028574   2.836820   4.079492
    16  H    4.803814   4.326495   3.067554   3.081829   2.074615
    17  H    2.161698   2.966962   4.323193   5.515571   6.573814
    18  H    3.186774   4.536670   5.603104   6.989694   7.731016
    19  H    5.602339   4.541777   3.193773   2.098788   0.956541
    20  H    3.114846   4.376488   4.841342   6.217737   6.524912
    21  H    4.248407   2.877903   2.120227   1.016760   2.162856
                   11         12         13         14         15
    11  C    0.000000
    12  B    2.611859   0.000000
    13  F    3.162950   1.394937   0.000000
    14  F    3.065067   1.396570   2.272291   0.000000
    15  H    4.236313   3.919074   4.756718   4.961820   0.000000
    16  H    0.892132   2.838554   3.199595   2.986305   5.084194
    17  H    6.262605   4.690803   5.414569   5.532039   2.850838
    18  H    6.981179   4.676595   5.179387   5.145960   4.846191
    19  H    2.118118   4.661402   5.147625   5.129161   4.921596
    20  H    5.422045   2.825603   3.125235   2.997224   5.103318
    21  H    3.223092   4.682185   5.399251   5.545726   2.807723
                   16         17         18         19         20
    16  H    0.000000
    17  H    6.947855   0.000000
    18  H    7.428862   2.476268   0.000000
    19  H    2.490826   7.495658   8.684477   0.000000
    20  H    5.612357   4.074651   2.597718   7.429091   0.000000
    21  H    4.065548   5.643637   7.405968   2.625436   6.940497
                   21
    21  H    0.000000
 Symmetry turned off by external request.
 Stoichiometry    C9H7BF2N2
 Framework group  C1[X(C9H7BF2N2)]
 Deg. of freedom    57
 Full point group                 C1      NOp   1
 Rotational constants (GHZ):           1.2887992           0.6413832           0.4683174
 Leave Link  202 at Tue May  6 19:25:37 2025, MaxMem=  2621440000 cpu:               0.1 elap:               0.0
 (Enter /usr/license/gaussian16_new/rev_c01/avx2/g16/l301.exe)
 Standard basis: def2SVP (5D, 7F)
 Ernie: Thresh=  0.10000D-02 Tol=  0.10000D-05 Strict=F.
 AO basis set in the form of general basis input (Overlap normalization):
      1 0
 S   5 1.00       0.000000000000
      0.1712841585D+04 -0.5447799580D-02
      0.2576481268D+03 -0.4062717463D-01
      0.5845824585D+02 -0.1811196225D+00
      0.1619836791D+02 -0.4684397556D+00
      0.5005260081D+01 -0.4461684629D+00
 S   1 1.00       0.000000000000
      0.5873185657D+00  0.1000000000D+01
 S   1 1.00       0.000000000000
      0.1876459225D+00  0.1000000000D+01
 P   3 1.00       0.000000000000
      0.1357147023D+02 -0.5884811697D-01
      0.2925737287D+01 -0.3202462476D+00
      0.7992775075D+00 -0.7532822652D+00
 P   1 1.00       0.000000000000
      0.2195434803D+00  0.1000000000D+01
 D   1 1.00       0.000000000000
      0.1000000000D+01  0.1000000000D+01
 ****
      2 0
 S   5 1.00       0.000000000000
      0.1712841585D+04 -0.5447799580D-02
      0.2576481268D+03 -0.4062717463D-01
      0.5845824585D+02 -0.1811196225D+00
      0.1619836791D+02 -0.4684397556D+00
      0.5005260081D+01 -0.4461684629D+00
 S   1 1.00       0.000000000000
      0.5873185657D+00  0.1000000000D+01
 S   1 1.00       0.000000000000
      0.1876459225D+00  0.1000000000D+01
 P   3 1.00       0.000000000000
      0.1357147023D+02 -0.5884811697D-01
      0.2925737287D+01 -0.3202462476D+00
      0.7992775075D+00 -0.7532822652D+00
 P   1 1.00       0.000000000000
      0.2195434803D+00  0.1000000000D+01
 D   1 1.00       0.000000000000
      0.1000000000D+01  0.1000000000D+01
 ****
      3 0
 S   5 1.00       0.000000000000
      0.1238401694D+04  0.5517365048D-02
      0.1862900499D+03  0.4108882856D-01
      0.4225117635D+02  0.1822538213D+00
      0.1167655793D+02  0.4682845944D+00
      0.3593050648D+01  0.4457581734D+00
 S   1 1.00       0.000000000000
      0.4024514736D+00  0.1000000000D+01
 S   1 1.00       0.000000000000
      0.1309018267D+00  0.1000000000D+01
 P   3 1.00       0.000000000000
      0.9468097062D+01  0.5688833201D-01
      0.2010354514D+01  0.3129405934D+00
      0.5477100471D+00  0.7606501651D+00
 P   1 1.00       0.000000000000
      0.1526861379D+00  0.1000000000D+01
 D   1 1.00       0.000000000000
      0.8000000000D+00  0.1000000000D+01
 ****
      4 0
 S   5 1.00       0.000000000000
      0.1238401694D+04  0.5517365048D-02
      0.1862900499D+03  0.4108882856D-01
      0.4225117635D+02  0.1822538213D+00
      0.1167655793D+02  0.4682845944D+00
      0.3593050648D+01  0.4457581734D+00
 S   1 1.00       0.000000000000
      0.4024514736D+00  0.1000000000D+01
 S   1 1.00       0.000000000000
      0.1309018267D+00  0.1000000000D+01
 P   3 1.00       0.000000000000
      0.9468097062D+01  0.5688833201D-01
      0.2010354514D+01  0.3129405934D+00
      0.5477100471D+00  0.7606501651D+00
 P   1 1.00       0.000000000000
      0.1526861379D+00  0.1000000000D+01
 D   1 1.00       0.000000000000
      0.8000000000D+00  0.1000000000D+01
 ****
      5 0
 S   5 1.00       0.000000000000
      0.1238401694D+04  0.5517365048D-02
      0.1862900499D+03  0.4108882856D-01
      0.4225117635D+02  0.1822538213D+00
      0.1167655793D+02  0.4682845944D+00
      0.3593050648D+01  0.4457581734D+00
 S   1 1.00       0.000000000000
      0.4024514736D+00  0.1000000000D+01
 S   1 1.00       0.000000000000
      0.1309018267D+00  0.1000000000D+01
 P   3 1.00       0.000000000000
      0.9468097062D+01  0.5688833201D-01
      0.2010354514D+01  0.3129405934D+00
      0.5477100471D+00  0.7606501651D+00
 P   1 1.00       0.000000000000
      0.1526861379D+00  0.1000000000D+01
 D   1 1.00       0.000000000000
      0.8000000000D+00  0.1000000000D+01
 ****
      6 0
 S   5 1.00       0.000000000000
      0.1238401694D+04  0.5517365048D-02
      0.1862900499D+03  0.4108882856D-01
      0.4225117635D+02  0.1822538213D+00
      0.1167655793D+02  0.4682845944D+00
      0.3593050648D+01  0.4457581734D+00
 S   1 1.00       0.000000000000
      0.4024514736D+00  0.1000000000D+01
 S   1 1.00       0.000000000000
      0.1309018267D+00  0.1000000000D+01
 P   3 1.00       0.000000000000
      0.9468097062D+01  0.5688833201D-01
      0.2010354514D+01  0.3129405934D+00
      0.5477100471D+00  0.7606501651D+00
 P   1 1.00       0.000000000000
      0.1526861379D+00  0.1000000000D+01
 D   1 1.00       0.000000000000
      0.8000000000D+00  0.1000000000D+01
 ****
      7 0
 S   5 1.00       0.000000000000
      0.1238401694D+04  0.5517365048D-02
      0.1862900499D+03  0.4108882856D-01
      0.4225117635D+02  0.1822538213D+00
      0.1167655793D+02  0.4682845944D+00
      0.3593050648D+01  0.4457581734D+00
 S   1 1.00       0.000000000000
      0.4024514736D+00  0.1000000000D+01
 S   1 1.00       0.000000000000
      0.1309018267D+00  0.1000000000D+01
 P   3 1.00       0.000000000000
      0.9468097062D+01  0.5688833201D-01
      0.2010354514D+01  0.3129405934D+00
      0.5477100471D+00  0.7606501651D+00
 P   1 1.00       0.000000000000
      0.1526861379D+00  0.1000000000D+01
 D   1 1.00       0.000000000000
      0.8000000000D+00  0.1000000000D+01
 ****
      8 0
 S   5 1.00       0.000000000000
      0.1238401694D+04  0.5517365048D-02
      0.1862900499D+03  0.4108882856D-01
      0.4225117635D+02  0.1822538213D+00
      0.1167655793D+02  0.4682845944D+00
      0.3593050648D+01  0.4457581734D+00
 S   1 1.00       0.000000000000
      0.4024514736D+00  0.1000000000D+01
 S   1 1.00       0.000000000000
      0.1309018267D+00  0.1000000000D+01
 P   3 1.00       0.000000000000
      0.9468097062D+01  0.5688833201D-01
      0.2010354514D+01  0.3129405934D+00
      0.5477100471D+00  0.7606501651D+00
 P   1 1.00       0.000000000000
      0.1526861379D+00  0.1000000000D+01
 D   1 1.00       0.000000000000
      0.8000000000D+00  0.1000000000D+01
 ****
      9 0
 S   5 1.00       0.000000000000
      0.1238401694D+04  0.5517365048D-02
      0.1862900499D+03  0.4108882856D-01
      0.4225117635D+02  0.1822538213D+00
      0.1167655793D+02  0.4682845944D+00
      0.3593050648D+01  0.4457581734D+00
 S   1 1.00       0.000000000000
      0.4024514736D+00  0.1000000000D+01
 S   1 1.00       0.000000000000
      0.1309018267D+00  0.1000000000D+01
 P   3 1.00       0.000000000000
      0.9468097062D+01  0.5688833201D-01
      0.2010354514D+01  0.3129405934D+00
      0.5477100471D+00  0.7606501651D+00
 P   1 1.00       0.000000000000
      0.1526861379D+00  0.1000000000D+01
 D   1 1.00       0.000000000000
      0.8000000000D+00  0.1000000000D+01
 ****
     10 0
 S   5 1.00       0.000000000000
      0.1238401694D+04  0.5517365048D-02
      0.1862900499D+03  0.4108882856D-01
      0.4225117635D+02  0.1822538213D+00
      0.1167655793D+02  0.4682845944D+00
      0.3593050648D+01  0.4457581734D+00
 S   1 1.00       0.000000000000
      0.4024514736D+00  0.1000000000D+01
 S   1 1.00       0.000000000000
      0.1309018267D+00  0.1000000000D+01
 P   3 1.00       0.000000000000
      0.9468097062D+01  0.5688833201D-01
      0.2010354514D+01  0.3129405934D+00
      0.5477100471D+00  0.7606501651D+00
 P   1 1.00       0.000000000000
      0.1526861379D+00  0.1000000000D+01
 D   1 1.00       0.000000000000
      0.8000000000D+00  0.1000000000D+01
 ****
     11 0
 S   5 1.00       0.000000000000
      0.1238401694D+04  0.5517365048D-02
      0.1862900499D+03  0.4108882856D-01
      0.4225117635D+02  0.1822538213D+00
      0.1167655793D+02  0.4682845944D+00
      0.3593050648D+01  0.4457581734D+00
 S   1 1.00       0.000000000000
      0.4024514736D+00  0.1000000000D+01
 S   1 1.00       0.000000000000
      0.1309018267D+00  0.1000000000D+01
 P   3 1.00       0.000000000000
      0.9468097062D+01  0.5688833201D-01
      0.2010354514D+01  0.3129405934D+00
      0.5477100471D+00  0.7606501651D+00
 P   1 1.00       0.000000000000
      0.1526861379D+00  0.1000000000D+01
 D   1 1.00       0.000000000000
      0.8000000000D+00  0.1000000000D+01
 ****
     12 0
 S   5 1.00       0.000000000000
      0.8393183009D+03 -0.5628883598D-02
      0.1262646484D+03 -0.4183279461D-01
      0.2862060076D+02 -0.1841748813D+00
      0.7879372271D+01 -0.4683965503D+00
      0.2408885717D+01 -0.4445793088D+00
 S   1 1.00       0.000000000000
      0.2510510904D+00  0.1000000000D+01
 S   1 1.00       0.000000000000
      0.8364886607D-01  0.1000000000D+01
 P   3 1.00       0.000000000000
      0.6033222362D+01 -0.5403250032D-01
      0.1249915787D+01 -0.3019403439D+00
      0.3387167635D+00 -0.7717079166D+00
 P   1 1.00       0.000000000000
      0.9641563235D-01  0.1000000000D+01
 D   1 1.00       0.000000000000
      0.5000000000D+00  0.1000000000D+01
 ****
     13 0
 S   5 1.00       0.000000000000
      0.2894832599D+04 -0.5349321176D-02
      0.4354193912D+03 -0.3996773437D-01
      0.9884332887D+02 -0.1794126179D+00
      0.2748519800D+02 -0.4683246869D+00
      0.8540549817D+01 -0.4472416053D+00
 S   1 1.00       0.000000000000
      0.1065457804D+01  0.1000000000D+01
 S   1 1.00       0.000000000000
      0.3324734675D+00  0.1000000000D+01
 P   3 1.00       0.000000000000
      0.2269663392D+02 -0.6478214824D-01
      0.4987233926D+01 -0.3403578536D+00
      0.1349161395D+01 -0.7348581537D+00
 P   1 1.00       0.000000000000
      0.3482988198D+00  0.1000000000D+01
 D   1 1.00       0.000000000000
      0.1400000000D+01  0.1000000000D+01
 ****
     14 0
 S   5 1.00       0.000000000000
      0.2894832599D+04 -0.5349321176D-02
      0.4354193912D+03 -0.3996773437D-01
      0.9884332887D+02 -0.1794126179D+00
      0.2748519800D+02 -0.4683246869D+00
      0.8540549817D+01 -0.4472416053D+00
 S   1 1.00       0.000000000000
      0.1065457804D+01  0.1000000000D+01
 S   1 1.00       0.000000000000
      0.3324734675D+00  0.1000000000D+01
 P   3 1.00       0.000000000000
      0.2269663392D+02 -0.6478214824D-01
      0.4987233926D+01 -0.3403578536D+00
      0.1349161395D+01 -0.7348581537D+00
 P   1 1.00       0.000000000000
      0.3482988198D+00  0.1000000000D+01
 D   1 1.00       0.000000000000
      0.1400000000D+01  0.1000000000D+01
 ****
     15 0
 S   3 1.00       0.000000000000
      0.1301070100D+02  0.3348548481D-01
      0.1962257200D+01  0.2347218709D+00
      0.4445379600D+00  0.8137702853D+00
 S   1 1.00       0.000000000000
      0.1219496200D+00  0.1000000000D+01
 P   1 1.00       0.000000000000
      0.8000000000D+00  0.1000000000D+01
 ****
     16 0
 S   3 1.00       0.000000000000
      0.1301070100D+02  0.3348548481D-01
      0.1962257200D+01  0.2347218709D+00
      0.4445379600D+00  0.8137702853D+00
 S   1 1.00       0.000000000000
      0.1219496200D+00  0.1000000000D+01
 P   1 1.00       0.000000000000
      0.8000000000D+00  0.1000000000D+01
 ****
     17 0
 S   3 1.00       0.000000000000
      0.1301070100D+02  0.3348548481D-01
      0.1962257200D+01  0.2347218709D+00
      0.4445379600D+00  0.8137702853D+00
 S   1 1.00       0.000000000000
      0.1219496200D+00  0.1000000000D+01
 P   1 1.00       0.000000000000
      0.8000000000D+00  0.1000000000D+01
 ****
     18 0
 S   3 1.00       0.000000000000
      0.1301070100D+02  0.3348548481D-01
      0.1962257200D+01  0.2347218709D+00
      0.4445379600D+00  0.8137702853D+00
 S   1 1.00       0.000000000000
      0.1219496200D+00  0.1000000000D+01
 P   1 1.00       0.000000000000
      0.8000000000D+00  0.1000000000D+01
 ****
     19 0
 S   3 1.00       0.000000000000
      0.1301070100D+02  0.3348548481D-01
      0.1962257200D+01  0.2347218709D+00
      0.4445379600D+00  0.8137702853D+00
 S   1 1.00       0.000000000000
      0.1219496200D+00  0.1000000000D+01
 P   1 1.00       0.000000000000
      0.8000000000D+00  0.1000000000D+01
 ****
     20 0
 S   3 1.00       0.000000000000
      0.1301070100D+02  0.3348548481D-01
      0.1962257200D+01  0.2347218709D+00
      0.4445379600D+00  0.8137702853D+00
 S   1 1.00       0.000000000000
      0.1219496200D+00  0.1000000000D+01
 P   1 1.00       0.000000000000
      0.8000000000D+00  0.1000000000D+01
 ****
     21 0
 S   3 1.00       0.000000000000
      0.1301070100D+02  0.3348548481D-01
      0.1962257200D+01  0.2347218709D+00
      0.4445379600D+00  0.8137702853D+00
 S   1 1.00       0.000000000000
      0.1219496200D+00  0.1000000000D+01
 P   1 1.00       0.000000000000
      0.8000000000D+00  0.1000000000D+01
 ****

   231 basis functions,   399 primitive gaussians,   245 cartesian basis functions
    49 alpha electrons       49 beta electrons
       nuclear repulsion energy       864.2580296774 Hartrees.
 IExCor= 4639 DFT=T Ex+Corr=wB97XD ExCW=0 ScaHFX=  1.000000
 ScaDFX=  1.000000  1.000000  1.000000  1.000000 ScalE2=  1.000000  1.000000
 IRadAn=      5 IRanWt=     -1 IRanGd=            0 ICorTp=0 IEmpDi=121
 HFx  wShort=  0.000000 wLong=  0.200000 cFull=  0.222036 cShort=  0.000000 cLong=  0.777964
 DFx  wShort=  0.000000 wLong=  0.200000 cFull=  0.000000 cShort=  0.000000 cLong=  1.000000
 NAtoms=   21 NActive=   21 NUniq=   21 SFac= 1.00D+00 NAtFMM=   60 NAOKFM=F Big=F
 Integral buffers will be    131072 words long.
 Raffenetti 2 integral format.
 Two-electron integral symmetry is turned off.
 Background charge distribution read from rwf.
 PtFMM for NChg=        42 BoxLen=    40.00 Levels= 1 LMax=20 SMax=    18.6 ICnFMM=     1:
 Self energy of the charges =        -0.1688669998 a.u.
 MM   energy of the charges =         0.0000000000 a.u.
 Nuclei-charges interaction =        -1.1666047386 a.u.
 Nuclear repulsion after external point charges =      862.9225579390 Hartrees.
 R6Disp:  Grimme-D2 Dispersion energy=       -0.0135649705 Hartrees.
 Nuclear repulsion after empirical dispersion term =      862.9089929684 Hartrees.
 Leave Link  301 at Tue May  6 19:25:37 2025, MaxMem=  2621440000 cpu:               0.6 elap:               0.0
 (Enter /usr/license/gaussian16_new/rev_c01/avx2/g16/l302.exe)
 NPDir=0 NMtPBC=     1 NCelOv=     1 NCel=       1 NClECP=     1 NCelD=      1
         NCelK=      1 NCelE2=     1 NClLst=     1 CellRange=     0.0.
 One-electron integrals computed using PRISM.
   1 Symmetry operations used in ECPInt.
 ECPInt:  NShTT=    5565 NPrTT=   20909 LenC2=    5389 LenP2D=   15019.
 LDataN:  DoStor=T MaxTD1= 4 Len=   56
 NBasis=   231 RedAO= T EigKep=  6.04D-04  NBF=   231
 NBsUse=   231 1.00D-06 EigRej= -1.00D+00 NBFU=   231
 Precomputing XC quadrature grid using
 IXCGrd= 4 IRadAn=           5 IRanWt=          -1 IRanGd=           0 AccXCQ= 0.00D+00.
 Generated NRdTot=       0 NPtTot=           0 NUsed=           0 NTot=          32
 NSgBfM=   245   245   245   245   245 MxSgAt=    21 MxSgA2=    21.
 Leave Link  302 at Tue May  6 19:25:37 2025, MaxMem=  2621440000 cpu:               2.9 elap:               0.2
 (Enter /usr/license/gaussian16_new/rev_c01/avx2/g16/l303.exe)
 DipDrv:  MaxL=1.
 Leave Link  303 at Tue May  6 19:25:37 2025, MaxMem=  2621440000 cpu:               0.6 elap:               0.0
 (Enter /usr/license/gaussian16_new/rev_c01/avx2/g16/l401.exe)
 ExpMin= 8.36D-02 ExpMax= 2.89D+03 ExpMxC= 4.35D+02 IAcc=3 IRadAn=         5 AccDes= 0.00D+00
 Harris functional with IExCor= 4639 and IRadAn=       5 diagonalized for initial guess.
 HarFok:  IExCor= 4639 AccDes= 0.00D+00 IRadAn=         5 IDoV= 1 UseB2=F ITyADJ=14
 ICtDFT=  3500011 ScaDFX=  1.000000  1.000000  1.000000  1.000000
 FoFCou: FMM=F IPFlag=           0 FMFlag=      100000 FMFlg1=           0
         NFxFlg=           0 DoJE=T BraDBF=F KetDBF=T FulRan=T
         wScrn=  0.000000 ICntrl=       500 IOpCl=  0 I1Cent=   200000004 NGrid=           0
         NMat0=    1 NMatS0=      1 NMatT0=    0 NMatD0=    1 NMtDS0=    0 NMtDT0=    0
 Symmetry not used in FoFCou.
 Harris En= -653.360022774743    
 JPrj=0 DoOrth=F DoCkMO=F.
 Leave Link  401 at Tue May  6 19:25:38 2025, MaxMem=  2621440000 cpu:               6.8 elap:               0.4
 (Enter /usr/license/gaussian16_new/rev_c01/avx2/g16/l502.exe)
 Two-electron integral symmetry not used.
 Closed shell SCF:
 Using DIIS extrapolation, IDIIS=  1040.
 NGot=  2621440000 LenX=  2621312525 LenY=  2621252059
 Requested convergence on RMS density matrix=1.00D-08 within 128 cycles.
 Requested convergence on MAX density matrix=1.00D-06.
 Requested convergence on             energy=1.00D-06.
 No special actions if energy rises.
 Fock matrices will be formed incrementally for  20 cycles.
 Integral accuracy reduced to 1.0D-05 until final iterations.

 Cycle   1  Pass 0  IDiag  1:
 FoFJK:  IHMeth= 1 ICntrl=       0 DoSepK=T KAlg= 0 I1Cent=           0 FoldK=F
 IRaf=         1 NMat=       1 IRICut=       1 DoRegI=T DoRafI=F ISym2E= 0 IDoP0=0 IntGTp=1.
 FoFCou: FMM=F IPFlag=           0 FMFlag=      100000 FMFlg1=           0
         NFxFlg=           0 DoJE=T BraDBF=F KetDBF=F FulRan=T
         wScrn=  0.000000 ICntrl=       500 IOpCl=  0 I1Cent=           0 NGrid=           0
         NMat0=    1 NMatS0=      1 NMatT0=    0 NMatD0=    1 NMtDS0=    0 NMtDT0=    0
 Symmetry not used in FoFCou.
 E= -680.503163065225    
 DIIS: error= 5.28D-02 at cycle   1 NSaved=   1.
 NSaved= 1 IEnMin= 1 EnMin= -680.503163065225     IErMin= 1 ErrMin= 5.28D-02
 ErrMax= 5.28D-02  0.00D+00 EMaxC= 1.00D-01 BMatC= 4.28D-01 BMatP= 4.28D-01
 IDIUse=3 WtCom= 4.72D-01 WtEn= 5.28D-01
 Coeff-Com:  0.100D+01
 Coeff-En:   0.100D+01
 Coeff:      0.100D+01
 Gap=     0.223 Goal=   None    Shift=    0.000
 GapD=    0.223 DampG=1.000 DampE=0.500 DampFc=0.5000 IDamp=-1.
 Damping current iteration by 5.00D-01
 RMSDP=4.27D-03 MaxDP=1.03D-01              OVMax= 1.71D-01

 Cycle   2  Pass 0  IDiag  1:
 RMSU=  2.10D-03    CP:  9.85D-01
 E= -680.599140132243     Delta-E=       -0.095977067018 Rises=F Damp=T
 DIIS: error= 1.61D-02 at cycle   2 NSaved=   2.
 NSaved= 2 IEnMin= 2 EnMin= -680.599140132243     IErMin= 2 ErrMin= 1.61D-02
 ErrMax= 1.61D-02  0.00D+00 EMaxC= 1.00D-01 BMatC= 5.64D-02 BMatP= 4.28D-01
 IDIUse=3 WtCom= 8.39D-01 WtEn= 1.61D-01
 Coeff-Com: -0.110D+00 0.111D+01
 Coeff-En:   0.404D-01 0.960D+00
 Coeff:     -0.857D-01 0.109D+01
 Gap=     0.245 Goal=   None    Shift=    0.000
 RMSDP=1.64D-03 MaxDP=4.72D-02 DE=-9.60D-02 OVMax= 1.44D-01

 Cycle   3  Pass 0  IDiag  1:
 RMSU=  1.56D-03    CP:  9.70D-01  1.17D+00
 E= -680.701925743548     Delta-E=       -0.102785611305 Rises=F Damp=F
 DIIS: error= 7.41D-03 at cycle   3 NSaved=   3.
 NSaved= 3 IEnMin= 3 EnMin= -680.701925743548     IErMin= 3 ErrMin= 7.41D-03
 ErrMax= 7.41D-03  0.00D+00 EMaxC= 1.00D-01 BMatC= 1.36D-02 BMatP= 5.64D-02
 IDIUse=3 WtCom= 9.26D-01 WtEn= 7.41D-02
 Coeff-Com: -0.147D+00 0.358D+00 0.789D+00
 Coeff-En:   0.000D+00 0.000D+00 0.100D+01
 Coeff:     -0.137D+00 0.332D+00 0.805D+00
 Gap=     0.233 Goal=   None    Shift=    0.000
 RMSDP=6.38D-04 MaxDP=2.21D-02 DE=-1.03D-01 OVMax= 3.94D-02

 Cycle   4  Pass 0  IDiag  1:
 RMSU=  3.55D-04    CP:  9.69D-01  1.39D+00  8.24D-01
 E= -680.711660442723     Delta-E=       -0.009734699175 Rises=F Damp=F
 DIIS: error= 3.53D-03 at cycle   4 NSaved=   4.
 NSaved= 4 IEnMin= 4 EnMin= -680.711660442723     IErMin= 4 ErrMin= 3.53D-03
 ErrMax= 3.53D-03  0.00D+00 EMaxC= 1.00D-01 BMatC= 3.81D-03 BMatP= 1.36D-02
 IDIUse=3 WtCom= 9.65D-01 WtEn= 3.53D-02
 Coeff-Com: -0.693D-01 0.130D+00 0.458D+00 0.481D+00
 Coeff-En:   0.000D+00 0.000D+00 0.161D+00 0.839D+00
 Coeff:     -0.669D-01 0.125D+00 0.448D+00 0.494D+00
 Gap=     0.235 Goal=   None    Shift=    0.000
 RMSDP=2.19D-04 MaxDP=6.07D-03 DE=-9.73D-03 OVMax= 1.15D-02

 Cycle   5  Pass 0  IDiag  1:
 RMSU=  9.08D-05    CP:  9.68D-01  1.37D+00  9.08D-01  6.05D-01
 E= -680.714617240154     Delta-E=       -0.002956797432 Rises=F Damp=F
 DIIS: error= 3.25D-04 at cycle   5 NSaved=   5.
 NSaved= 5 IEnMin= 5 EnMin= -680.714617240154     IErMin= 5 ErrMin= 3.25D-04
 ErrMax= 3.25D-04  0.00D+00 EMaxC= 1.00D-01 BMatC= 2.28D-05 BMatP= 3.81D-03
 IDIUse=3 WtCom= 9.97D-01 WtEn= 3.25D-03
 Coeff-Com:  0.139D-01-0.295D-01-0.444D-01-0.212D-02 0.106D+01
 Coeff-En:   0.000D+00 0.000D+00 0.000D+00 0.000D+00 0.100D+01
 Coeff:      0.139D-01-0.294D-01-0.442D-01-0.212D-02 0.106D+01
 Gap=     0.236 Goal=   None    Shift=    0.000
 RMSDP=4.41D-05 MaxDP=1.14D-03 DE=-2.96D-03 OVMax= 2.95D-03

 Cycle   6  Pass 0  IDiag  1:
 RMSU=  2.60D-05    CP:  9.67D-01  1.37D+00  9.23D-01  6.59D-01  1.18D+00
 E= -680.714653271596     Delta-E=       -0.000036031442 Rises=F Damp=F
 DIIS: error= 1.00D-04 at cycle   6 NSaved=   6.
 NSaved= 6 IEnMin= 6 EnMin= -680.714653271596     IErMin= 6 ErrMin= 1.00D-04
 ErrMax= 1.00D-04  0.00D+00 EMaxC= 1.00D-01 BMatC= 2.83D-06 BMatP= 2.28D-05
 IDIUse=3 WtCom= 9.99D-01 WtEn= 1.00D-03
 Coeff-Com:  0.107D-01-0.211D-01-0.508D-01-0.445D-01 0.329D+00 0.777D+00
 Coeff-En:   0.000D+00 0.000D+00 0.000D+00 0.000D+00 0.000D+00 0.100D+01
 Coeff:      0.107D-01-0.211D-01-0.508D-01-0.445D-01 0.328D+00 0.777D+00
 Gap=     0.236 Goal=   None    Shift=    0.000
 RMSDP=1.36D-05 MaxDP=3.72D-04 DE=-3.60D-05 OVMax= 1.47D-03

 Cycle   7  Pass 0  IDiag  1:
 RMSU=  8.99D-06    CP:  9.67D-01  1.37D+00  9.26D-01  6.65D-01  1.27D+00
                    CP:  1.11D+00
 E= -680.714658432621     Delta-E=       -0.000005161024 Rises=F Damp=F
 DIIS: error= 2.69D-05 at cycle   7 NSaved=   7.
 NSaved= 7 IEnMin= 7 EnMin= -680.714658432621     IErMin= 7 ErrMin= 2.69D-05
 ErrMax= 2.69D-05  0.00D+00 EMaxC= 1.00D-01 BMatC= 4.59D-07 BMatP= 2.83D-06
 IDIUse=1 WtCom= 1.00D+00 WtEn= 0.00D+00
 Coeff-Com:  0.216D-02-0.396D-02-0.118D-01-0.166D-01-0.134D-01 0.273D+00
 Coeff-Com:  0.770D+00
 Coeff:      0.216D-02-0.396D-02-0.118D-01-0.166D-01-0.134D-01 0.273D+00
 Coeff:      0.770D+00
 Gap=     0.236 Goal=   None    Shift=    0.000
 RMSDP=5.66D-06 MaxDP=1.37D-04 DE=-5.16D-06 OVMax= 4.77D-04

 Initial convergence to 1.0D-05 achieved.  Increase integral accuracy.
 Cycle   8  Pass 1  IDiag  1:
 E= -680.714664960927     Delta-E=       -0.000006528307 Rises=F Damp=F
 DIIS: error= 1.31D-04 at cycle   1 NSaved=   1.
 NSaved= 1 IEnMin= 1 EnMin= -680.714664960927     IErMin= 1 ErrMin= 1.31D-04
 ErrMax= 1.31D-04  0.00D+00 EMaxC= 1.00D-01 BMatC= 7.77D-07 BMatP= 7.77D-07
 IDIUse=3 WtCom= 9.99D-01 WtEn= 1.31D-03
 Coeff-Com:  0.100D+01
 Coeff-En:   0.100D+01
 Coeff:      0.100D+01
 Gap=     0.236 Goal=   None    Shift=    0.000
 RMSDP=5.66D-06 MaxDP=1.37D-04 DE=-6.53D-06 OVMax= 3.24D-04

 Cycle   9  Pass 1  IDiag  1:
 RMSU=  6.99D-05    CP:  1.00D+00
 E= -680.714665911289     Delta-E=       -0.000000950361 Rises=F Damp=F
 DIIS: error= 1.02D-05 at cycle   2 NSaved=   2.
 NSaved= 2 IEnMin= 2 EnMin= -680.714665911289     IErMin= 2 ErrMin= 1.02D-05
 ErrMax= 1.02D-05  0.00D+00 EMaxC= 1.00D-01 BMatC= 4.51D-08 BMatP= 7.77D-07
 IDIUse=1 WtCom= 1.00D+00 WtEn= 0.00D+00
 Coeff-Com:  0.157D-01 0.984D+00
 Coeff:      0.157D-01 0.984D+00
 Gap=     0.236 Goal=   None    Shift=    0.000
 RMSDP=5.41D-06 MaxDP=1.22D-04 DE=-9.50D-07 OVMax= 1.73D-04

 Cycle  10  Pass 1  IDiag  1:
 RMSU=  2.39D-06    CP:  1.00D+00  1.07D+00
 E= -680.714665948823     Delta-E=       -0.000000037534 Rises=F Damp=F
 DIIS: error= 1.89D-05 at cycle   3 NSaved=   3.
 NSaved= 3 IEnMin= 3 EnMin= -680.714665948823     IErMin= 2 ErrMin= 1.02D-05
 ErrMax= 1.89D-05  0.00D+00 EMaxC= 1.00D-01 BMatC= 5.48D-08 BMatP= 4.51D-08
 IDIUse=1 WtCom= 1.00D+00 WtEn= 0.00D+00
 Coeff-Com: -0.472D-01 0.549D+00 0.498D+00
 Coeff:     -0.472D-01 0.549D+00 0.498D+00
 Gap=     0.236 Goal=   None    Shift=    0.000
 RMSDP=1.13D-06 MaxDP=2.89D-05 DE=-3.75D-08 OVMax= 7.42D-05

 Cycle  11  Pass 1  IDiag  1:
 RMSU=  8.37D-07    CP:  1.00D+00  1.08D+00  7.63D-01
 E= -680.714666008208     Delta-E=       -0.000000059385 Rises=F Damp=F
 DIIS: error= 3.34D-06 at cycle   4 NSaved=   4.
 NSaved= 4 IEnMin= 4 EnMin= -680.714666008208     IErMin= 4 ErrMin= 3.34D-06
 ErrMax= 3.34D-06  0.00D+00 EMaxC= 1.00D-01 BMatC= 1.04D-09 BMatP= 4.51D-08
 IDIUse=1 WtCom= 1.00D+00 WtEn= 0.00D+00
 Coeff-Com:  0.467D-02-0.149D+00-0.683D-01 0.121D+01
 Coeff:      0.467D-02-0.149D+00-0.683D-01 0.121D+01
 Gap=     0.236 Goal=   None    Shift=    0.000
 RMSDP=5.80D-07 MaxDP=7.84D-06 DE=-5.94D-08 OVMax= 6.39D-05

 Cycle  12  Pass 1  IDiag  1:
 RMSU=  2.87D-07    CP:  1.00D+00  1.08D+00  9.07D-01  1.43D+00
 E= -680.714666015529     Delta-E=       -0.000000007321 Rises=F Damp=F
 DIIS: error= 1.48D-06 at cycle   5 NSaved=   5.
 NSaved= 5 IEnMin= 5 EnMin= -680.714666015529     IErMin= 5 ErrMin= 1.48D-06
 ErrMax= 1.48D-06  0.00D+00 EMaxC= 1.00D-01 BMatC= 8.39D-10 BMatP= 1.04D-09
 IDIUse=1 WtCom= 1.00D+00 WtEn= 0.00D+00
 Coeff-Com:  0.130D-01-0.210D+00-0.153D+00 0.688D+00 0.662D+00
 Coeff:      0.130D-01-0.210D+00-0.153D+00 0.688D+00 0.662D+00
 Gap=     0.236 Goal=   None    Shift=    0.000
 RMSDP=2.72D-07 MaxDP=5.03D-06 DE=-7.32D-09 OVMax= 2.38D-05

 Cycle  13  Pass 1  IDiag  1:
 RMSU=  1.58D-07    CP:  1.00D+00  1.08D+00  9.57D-01  1.65D+00  1.16D+00
 E= -680.714666017171     Delta-E=       -0.000000001642 Rises=F Damp=F
 DIIS: error= 4.66D-07 at cycle   6 NSaved=   6.
 NSaved= 6 IEnMin= 6 EnMin= -680.714666017171     IErMin= 6 ErrMin= 4.66D-07
 ErrMax= 4.66D-07  0.00D+00 EMaxC= 1.00D-01 BMatC= 4.06D-11 BMatP= 8.39D-10
 IDIUse=1 WtCom= 1.00D+00 WtEn= 0.00D+00
 Coeff-Com:  0.318D-02-0.353D-01-0.338D-01-0.635D-02 0.175D+00 0.897D+00
 Coeff:      0.318D-02-0.353D-01-0.338D-01-0.635D-02 0.175D+00 0.897D+00
 Gap=     0.236 Goal=   None    Shift=    0.000
 RMSDP=9.67D-08 MaxDP=1.44D-06 DE=-1.64D-09 OVMax= 1.05D-05

 Cycle  14  Pass 1  IDiag  1:
 RMSU=  3.42D-08    CP:  1.00D+00  1.08D+00  9.70D-01  1.71D+00  1.35D+00
                    CP:  1.20D+00
 E= -680.714666017323     Delta-E=       -0.000000000151 Rises=F Damp=F
 DIIS: error= 1.80D-07 at cycle   7 NSaved=   7.
 NSaved= 7 IEnMin= 7 EnMin= -680.714666017323     IErMin= 7 ErrMin= 1.80D-07
 ErrMax= 1.80D-07  0.00D+00 EMaxC= 1.00D-01 BMatC= 6.43D-12 BMatP= 4.06D-11
 IDIUse=1 WtCom= 1.00D+00 WtEn= 0.00D+00
 Coeff-Com: -0.553D-03 0.134D-01 0.735D-02-0.740D-01-0.179D-01 0.267D+00
 Coeff-Com:  0.805D+00
 Coeff:     -0.553D-03 0.134D-01 0.735D-02-0.740D-01-0.179D-01 0.267D+00
 Coeff:      0.805D+00
 Gap=     0.236 Goal=   None    Shift=    0.000
 RMSDP=2.59D-08 MaxDP=5.01D-07 DE=-1.51D-10 OVMax= 2.69D-06

 Cycle  15  Pass 1  IDiag  1:
 RMSU=  1.68D-08    CP:  1.00D+00  1.08D+00  9.71D-01  1.72D+00  1.40D+00
                    CP:  1.27D+00  1.10D+00
 E= -680.714666017337     Delta-E=       -0.000000000015 Rises=F Damp=F
 DIIS: error= 6.54D-08 at cycle   8 NSaved=   8.
 NSaved= 8 IEnMin= 8 EnMin= -680.714666017337     IErMin= 8 ErrMin= 6.54D-08
 ErrMax= 6.54D-08  0.00D+00 EMaxC= 1.00D-01 BMatC= 1.30D-12 BMatP= 6.43D-12
 IDIUse=1 WtCom= 1.00D+00 WtEn= 0.00D+00
 Coeff-Com: -0.662D-03 0.970D-02 0.701D-02-0.281D-01-0.299D-01-0.588D-01
 Coeff-Com:  0.253D+00 0.848D+00
 Coeff:     -0.662D-03 0.970D-02 0.701D-02-0.281D-01-0.299D-01-0.588D-01
 Coeff:      0.253D+00 0.848D+00
 Gap=     0.236 Goal=   None    Shift=    0.000
 RMSDP=1.39D-08 MaxDP=1.85D-07 DE=-1.46D-11 OVMax= 1.52D-06

 Cycle  16  Pass 1  IDiag  1:
 RMSU=  6.81D-09    CP:  1.00D+00  1.08D+00  9.71D-01  1.72D+00  1.42D+00
                    CP:  1.30D+00  1.30D+00  1.27D+00
 E= -680.714666017341     Delta-E=       -0.000000000004 Rises=F Damp=F
 DIIS: error= 3.54D-08 at cycle   9 NSaved=   9.
 NSaved= 9 IEnMin= 9 EnMin= -680.714666017341     IErMin= 9 ErrMin= 3.54D-08
 ErrMax= 3.54D-08  0.00D+00 EMaxC= 1.00D-01 BMatC= 1.69D-13 BMatP= 1.30D-12
 IDIUse=1 WtCom= 1.00D+00 WtEn= 0.00D+00
 Coeff-Com:  0.397D-04-0.139D-02-0.795D-03 0.102D-01 0.638D-02-0.569D-01
 Coeff-Com: -0.114D+00 0.995D-01 0.106D+01
 Coeff:      0.397D-04-0.139D-02-0.795D-03 0.102D-01 0.638D-02-0.569D-01
 Coeff:     -0.114D+00 0.995D-01 0.106D+01
 Gap=     0.236 Goal=   None    Shift=    0.000
 RMSDP=6.49D-09 MaxDP=9.49D-08 DE=-3.87D-12 OVMax= 7.74D-07

 SCF Done:  E(RwB97XD) =  -680.714666017     A.U. after   16 cycles
            NFock= 16  Conv=0.65D-08     -V/T= 2.0071
 KE= 6.759028953540D+02 PE=-3.319516146066D+03 EE= 1.099989591726D+03
 Leave Link  502 at Tue May  6 19:25:49 2025, MaxMem=  2621440000 cpu:             220.9 elap:              11.1
 (Enter /usr/license/gaussian16_new/rev_c01/avx2/g16/l601.exe)
 Copying SCF densities to generalized density rwf, IOpCl= 0 IROHF=0.

 **********************************************************************

            Population analysis using the SCF Density.

 **********************************************************************

 Alpha  occ. eigenvalues --  -24.73649 -24.73426 -14.47988 -14.47119 -10.34079
 Alpha  occ. eigenvalues --  -10.33767 -10.33517 -10.33250 -10.33123 -10.31010
 Alpha  occ. eigenvalues --  -10.29842 -10.29169 -10.28299  -6.92312  -1.22281
 Alpha  occ. eigenvalues --   -1.18761  -1.08486  -1.06670  -0.91688  -0.89183
 Alpha  occ. eigenvalues --   -0.87633  -0.82981  -0.77967  -0.71172  -0.69227
 Alpha  occ. eigenvalues --   -0.68698  -0.67727  -0.64828  -0.62985  -0.58244
 Alpha  occ. eigenvalues --   -0.55349  -0.55100  -0.54114  -0.53386  -0.52501
 Alpha  occ. eigenvalues --   -0.50905  -0.50496  -0.49788  -0.49197  -0.48802
 Alpha  occ. eigenvalues --   -0.47532  -0.43921  -0.43691  -0.41865  -0.41479
 Alpha  occ. eigenvalues --   -0.38470  -0.34948  -0.33516  -0.28402
 Alpha virt. eigenvalues --   -0.04838   0.09735   0.11727   0.14187   0.16993
 Alpha virt. eigenvalues --    0.18644   0.19668   0.19850   0.22093   0.22334
 Alpha virt. eigenvalues --    0.23637   0.25601   0.25891   0.26517   0.27166
 Alpha virt. eigenvalues --    0.30109   0.31331   0.31348   0.32499   0.34546
 Alpha virt. eigenvalues --    0.37541   0.38029   0.41211   0.41813   0.43224
 Alpha virt. eigenvalues --    0.46153   0.47107   0.48144   0.50190   0.50658
 Alpha virt. eigenvalues --    0.51549   0.51680   0.52153   0.52864   0.53257
 Alpha virt. eigenvalues --    0.55360   0.56328   0.57174   0.57332   0.60272
 Alpha virt. eigenvalues --    0.60411   0.61389   0.62254   0.62884   0.66771
 Alpha virt. eigenvalues --    0.67116   0.68942   0.69783   0.74324   0.76055
 Alpha virt. eigenvalues --    0.76901   0.77816   0.78185   0.79066   0.80122
 Alpha virt. eigenvalues --    0.80569   0.81684   0.82900   0.83062   0.83942
 Alpha virt. eigenvalues --    0.86130   0.86388   0.87585   0.90209   0.91578
 Alpha virt. eigenvalues --    0.97942   0.98029   0.98734   1.04234   1.06682
 Alpha virt. eigenvalues --    1.07959   1.11155   1.13832   1.17024   1.17934
 Alpha virt. eigenvalues --    1.22915   1.24688   1.24784   1.26475   1.28312
 Alpha virt. eigenvalues --    1.28564   1.29666   1.32854   1.33496   1.34368
 Alpha virt. eigenvalues --    1.36633   1.36871   1.39070   1.41546   1.42141
 Alpha virt. eigenvalues --    1.45181   1.45761   1.47624   1.49438   1.50353
 Alpha virt. eigenvalues --    1.57870   1.60237   1.63199   1.64155   1.66101
 Alpha virt. eigenvalues --    1.71231   1.72752   1.74237   1.75781   1.76425
 Alpha virt. eigenvalues --    1.77630   1.78011   1.81448   1.82000   1.82266
 Alpha virt. eigenvalues --    1.84976   1.87013   1.89056   1.90670   1.94087
 Alpha virt. eigenvalues --    1.94908   1.97101   1.97799   2.00480   2.02804
 Alpha virt. eigenvalues --    2.04849   2.07559   2.08054   2.09066   2.10727
 Alpha virt. eigenvalues --    2.11369   2.13089   2.15252   2.17162   2.18928
 Alpha virt. eigenvalues --    2.23209   2.24585   2.25395   2.30301   2.30736
 Alpha virt. eigenvalues --    2.35249   2.37548   2.38059   2.39309   2.41724
 Alpha virt. eigenvalues --    2.43850   2.45019   2.46760   2.52966   2.58338
 Alpha virt. eigenvalues --    2.66338   2.68091   2.70033   2.71566   2.75342
 Alpha virt. eigenvalues --    2.76946   2.79904   2.81215   2.82755   2.83364
 Alpha virt. eigenvalues --    2.87358   2.89856   3.02045   3.02720   3.09019
 Alpha virt. eigenvalues --    3.11725   3.14751   3.15555   3.18042   3.21975
 Alpha virt. eigenvalues --    3.22229   3.22557   3.26077   3.26938   3.29075
 Alpha virt. eigenvalues --    3.40188   3.42608   3.48215   3.52130   3.57250
 Alpha virt. eigenvalues --    3.63422   3.66323   3.75817   3.84335   3.87145
 Alpha virt. eigenvalues --    3.87186   3.92477
          Condensed to atoms (all electrons):
               1          2          3          4          5          6
     1  N    6.398366  -0.041819   0.449311  -0.049255  -0.103531   0.409849
     2  N   -0.041819   6.375581   0.000260   0.000016  -0.000616  -0.010450
     3  C    0.449311   0.000260   4.739179   0.323650   0.029145  -0.153490
     4  C   -0.049255   0.000016   0.323650   5.010409   0.326825   0.020175
     5  C   -0.103531  -0.000616   0.029145   0.326825   5.013463   0.320448
     6  C    0.409849  -0.010450  -0.153490   0.020175   0.320448   5.138049
     7  C   -0.059886  -0.052380   0.007044   0.019444  -0.101674   0.336221
     8  C   -0.015047   0.413627   0.001572  -0.001418   0.015140   0.016769
     9  C   -0.000607  -0.107020   0.000041  -0.000000  -0.000014   0.011444
    10  C    0.000025  -0.044516  -0.000004  -0.000000   0.000001  -0.000980
    11  C    0.000206   0.458348  -0.000022  -0.000004   0.000040   0.001336
    12  B    0.284831   0.275626  -0.010647   0.000314   0.000720  -0.047979
    13  F   -0.034590  -0.033424  -0.002274  -0.000173  -0.000017  -0.002537
    14  F   -0.032666  -0.032424   0.001173   0.000242  -0.000079  -0.002560
    15  H    0.007497   0.006340  -0.000662   0.000841  -0.025232  -0.023219
    16  H    0.000215  -0.035387   0.000004  -0.000000  -0.000001   0.000062
    17  H    0.005489  -0.000014   0.015529  -0.074225   0.490672  -0.052287
    18  H    0.005921   0.000003  -0.075922   0.484850  -0.072477   0.017408
    19  H    0.000003   0.006160   0.000000   0.000000  -0.000000   0.000008
    20  H   -0.032850   0.000190   0.455069  -0.075123   0.014078   0.002875
    21  H   -0.000015   0.006664  -0.000000   0.000000   0.000005   0.000026
               7          8          9         10         11         12
     1  N   -0.059886  -0.015047  -0.000607   0.000025   0.000206   0.284831
     2  N   -0.052380   0.413627  -0.107020  -0.044516   0.458348   0.275626
     3  C    0.007044   0.001572   0.000041  -0.000004  -0.000022  -0.010647
     4  C    0.019444  -0.001418  -0.000000  -0.000000  -0.000004   0.000314
     5  C   -0.101674   0.015140  -0.000014   0.000001   0.000040   0.000720
     6  C    0.336221   0.016769   0.011444  -0.000980   0.001336  -0.047979
     7  C    5.034305   0.273890  -0.112258   0.020616   0.004978  -0.004403
     8  C    0.273890   5.173684   0.365357   0.012887  -0.147321  -0.047878
     9  C   -0.112258   0.365357   5.083740   0.309443   0.018567   0.001079
    10  C    0.020616   0.012887   0.309443   4.986233   0.355600   0.000045
    11  C    0.004978  -0.147321   0.018567   0.355600   4.616695  -0.010848
    12  B   -0.004403  -0.047878   0.001079   0.000045  -0.010848   3.401354
    13  F    0.001089  -0.002510   0.000007  -0.000246  -0.001764   0.472818
    14  F    0.001300  -0.002463  -0.000089   0.000239   0.000925   0.451813
    15  H    0.456163  -0.070137  -0.019297   0.000471  -0.000452   0.002450
    16  H   -0.001023  -0.000052   0.021128  -0.086620   0.459586  -0.000450
    17  H   -0.014707   0.000005   0.000002   0.000000  -0.000000   0.000351
    18  H   -0.000667   0.000006  -0.000000   0.000000   0.000000   0.000248
    19  H   -0.000593   0.016325  -0.083938   0.489670  -0.065892   0.000263
    20  H   -0.000685   0.000034  -0.000001   0.000000   0.000004  -0.000130
    21  H   -0.017071  -0.043163   0.458499  -0.073734   0.012931   0.000352
              13         14         15         16         17         18
     1  N   -0.034590  -0.032666   0.007497   0.000215   0.005489   0.005921
     2  N   -0.033424  -0.032424   0.006340  -0.035387  -0.000014   0.000003
     3  C   -0.002274   0.001173  -0.000662   0.000004   0.015529  -0.075922
     4  C   -0.000173   0.000242   0.000841  -0.000000  -0.074225   0.484850
     5  C   -0.000017  -0.000079  -0.025232  -0.000001   0.490672  -0.072477
     6  C   -0.002537  -0.002560  -0.023219   0.000062  -0.052287   0.017408
     7  C    0.001089   0.001300   0.456163  -0.001023  -0.014707  -0.000667
     8  C   -0.002510  -0.002463  -0.070137  -0.000052   0.000005   0.000006
     9  C    0.000007  -0.000089  -0.019297   0.021128   0.000002  -0.000000
    10  C   -0.000246   0.000239   0.000471  -0.086620   0.000000   0.000000
    11  C   -0.001764   0.000925  -0.000452   0.459586  -0.000000   0.000000
    12  B    0.472818   0.451813   0.002450  -0.000450   0.000351   0.000248
    13  F    8.849263  -0.026251   0.000000  -0.000108   0.000001   0.000002
    14  F   -0.026251   8.870844   0.000006   0.001749   0.000001   0.000001
    15  H    0.000000   0.000006   0.749078   0.000010   0.001661   0.000021
    16  H   -0.000108   0.001749   0.000010   0.746029  -0.000000  -0.000000
    17  H    0.000001   0.000001   0.001661  -0.000000   0.666726  -0.009887
    18  H    0.000002   0.000001   0.000021  -0.000000  -0.009887   0.714195
    19  H    0.000001   0.000001   0.000005  -0.009891  -0.000000  -0.000000
    20  H    0.000447   0.000817   0.000013   0.000001  -0.000260  -0.006274
    21  H    0.000001   0.000001   0.002665  -0.000347  -0.000001  -0.000000
              19         20         21
     1  N    0.000003  -0.032850  -0.000015
     2  N    0.006160   0.000190   0.006664
     3  C    0.000000   0.455069  -0.000000
     4  C    0.000000  -0.075123   0.000000
     5  C   -0.000000   0.014078   0.000005
     6  C    0.000008   0.002875   0.000026
     7  C   -0.000593  -0.000685  -0.017071
     8  C    0.016325   0.000034  -0.043163
     9  C   -0.083938  -0.000001   0.458499
    10  C    0.489670   0.000000  -0.073734
    11  C   -0.065892   0.000004   0.012931
    12  B    0.000263  -0.000130   0.000352
    13  F    0.000001   0.000447   0.000001
    14  F    0.000001   0.000817   0.000001
    15  H    0.000005   0.000013   0.002665
    16  H   -0.009891   0.000001  -0.000347
    17  H   -0.000000  -0.000260  -0.000001
    18  H   -0.000000  -0.006274  -0.000000
    19  H    0.716652  -0.000000  -0.007059
    20  H   -0.000000   0.657894  -0.000000
    21  H   -0.007059  -0.000000   0.693653
 Mulliken charges:
               1
     1  N   -0.191445
     2  N   -0.184765
     3  C    0.221042
     4  C    0.013432
     5  C    0.093103
     6  C    0.018831
     7  C    0.210300
     8  C    0.040693
     9  C    0.053919
    10  C    0.030871
    11  C    0.297089
    12  B    0.230075
    13  F   -0.219737
    14  F   -0.232580
    15  H   -0.088220
    16  H   -0.094905
    17  H   -0.029055
    18  H   -0.057427
    19  H   -0.061715
    20  H   -0.016098
    21  H   -0.033407
 Sum of Mulliken charges =  -0.00000
 Mulliken charges with hydrogens summed into heavy atoms:
               1
     1  N   -0.191445
     2  N   -0.184765
     3  C    0.204944
     4  C   -0.043995
     5  C    0.064048
     6  C    0.018831
     7  C    0.122079
     8  C    0.040693
     9  C    0.020511
    10  C   -0.030844
    11  C    0.202184
    12  B    0.230075
    13  F   -0.219737
    14  F   -0.232580
 Electronic spatial extent (au):  <R**2>=          46924.1359
 Charge=             -0.0000 electrons
 Dipole moment (field-independent basis, Debye):
    X=              3.6789    Y=              3.5906    Z=             -1.1480  Tot=              5.2673
 Quadrupole moment (field-independent basis, Debye-Ang):
   XX=           -119.7926   YY=            -92.5748   ZZ=            -85.0215
   XY=            -21.6077   XZ=             46.5777   YZ=             38.2429
 Traceless Quadrupole moment (field-independent basis, Debye-Ang):
   XX=            -20.6630   YY=              6.5548   ZZ=             14.1081
   XY=            -21.6077   XZ=             46.5777   YZ=             38.2429
 Octapole moment (field-independent basis, Debye-Ang**2):
  XXX=           1757.3721  YYY=            428.8517  ZZZ=          -2082.5739  XYY=            549.7869
  XXY=            262.9785  XXZ=          -1235.2671  XZZ=            923.6024  YZZ=            503.8697
  YYZ=           -883.0443  XYZ=           -241.8056
 Hexadecapole moment (field-independent basis, Debye-Ang**3):
 XXXX=         -20131.7440 YYYY=          -1861.1874 ZZZZ=         -38743.3878 XXXY=          -3329.0910
 XXXZ=          17299.4309 YYYX=          -2739.9434 YYYZ=           3994.2974 ZZZX=          16563.7092
 ZZZY=           6967.3340 XXYY=          -3655.7438 XXZZ=         -15230.3284 YYZZ=          -8977.6917
 XXYZ=           2783.4559 YYXZ=           5226.6480 ZZXY=          -3256.4670
 N-N= 8.629089929684D+02 E-N=-3.319516144941D+03  KE= 6.759028953540D+02
 No NMR shielding tensors so no spin-rotation constants.
 Leave Link  601 at Tue May  6 19:25:49 2025, MaxMem=  2621440000 cpu:               1.3 elap:               0.1
 (Enter /usr/license/gaussian16_new/rev_c01/avx2/g16/l9999.exe)

 Test job not archived.
 1\1\GINC-TELLURIUM3\SP\RwB97XD\def2SVP\C9H7B1F2N2\PITESA\06-May-2025\0
 \\#p nosym unit=AU wb97xd def2svp GFINPUT charge\\SHARC-GAUSSIAN job\\
 0,1\N,0,-5.8703970042,-1.6234930012,10.6968230076\N,0,-6.5669940047,-1
 .9998590014,8.3205540059\C,0,-5.8287660041,-1.5500430011,12.0486210086
 \C,0,-4.7961270034,-0.7314580005,12.4794030089\C,0,-4.1385390029,-0.27
 55630002,11.3408960081\C,0,-4.8206110034,-0.8297290006,10.2259020073\C
 ,0,-4.6233040033,-0.6645940005,8.8515990063\C,0,-5.4780910039,-1.21977
 20009,7.9058950056\C,0,-5.5447770039,-1.1215020008,6.4946440046\C,0,-6
 .6293930047,-1.8124360013,6.0554650043\C,0,-7.2533780052,-2.3433000017
 ,7.2173160051\B,0,-6.8356910049,-2.4435970017,9.793609007\F,0,-6.58098
 40047,-3.8073310027,9.9392180071\F,0,-8.1647690058,-2.1903220016,10.13
 97460072\H,0,-3.9474400028,-0.0810480001,8.5954810061\H,0,-7.989698005
 7,-2.846811002,7.2317590051\H,0,-3.3964560024,0.3343230002,11.36155400
 81\H,0,-4.5343430032,-0.5268120004,13.3853040095\H,0,-6.9537850049,-1.
 9248900014,5.1626630037\H,0,-6.4104280046,-2.1275100015,12.5690860089\
 H,0,-4.8766360035,-0.5470740004,5.9872780043\\Version=ES64L-G16RevC.01
 \HF=-680.714666\RMSD=6.491e-09\Dipole=1.4473995,1.4126531,-0.451655\Qu
 adrupole=-15.3624059,4.8733487,10.4890572,-16.0647723,34.6294077,28.43
 26417\PG=C01 [X(C9H7B1F2N2)]\\@


 Everywhere is walking distance if you have the time.
                                    -- Steven Wright
 Job cpu time:       0 days  0 hours  3 minutes 55.6 seconds.
 Elapsed time:       0 days  0 hours  0 minutes 12.0 seconds.
 File lengths (MBytes):  RWF=     47 Int=      0 D2E=      0 Chk=      5 Scr=      2
 Normal termination of Gaussian 16 at Tue May  6 19:25:49 2025.
