   This run of MOLCAS is using the pymolcas driver

                             OPE
                             OPE          NMOL  CASOP  ENMOLC A   SO
                 OPE        NMOLC        AS  OP EN  MO LC     AS  OP
                OPENM       OL CA        SO  PE NM  OL CA     SOP EN
                OP EN      MO   LC       AS  OP ENMOL  CASO   PENMOL
                OP  EN     MO   LC       AS  OP EN     MO     LC ASO
               OP   E  NMOL  C  AS       OP  EN MO     LC     AS  OP
               OP  E   NMO   LC AS        OPEN  MO     LCASOP EN   M
               O  PEN   MO  LCA  SO
            OPE   NMO   L   CAS    OP
        OPENMOL  CASOP     ENMOL   CASOPE
     OPENMOLCA   SOPENMOLCASOPEN   MOLCASOPE
    OPENMOLCAS   OP           EN   MOL    CAS
    OPENMOLCAS       OP  ENM        O     LCA
    OPENMOLCAS    OPEN  MOLCASO     P  E  NMO
    OPENMOLCAS     OP               E  N  MOL
    OPENMOLCA   SO           PENM   O  L  CAS    OPEN    MO    LCAS
    OPENMOLCA   SOP           ENM   O  L  CAS   OP  EN  MOLC  AS   O
    OPENMOLCA   SOPE           NM      O  LCA   S      OP  EN MO
    OPENMOLC                AS         O  PEN   M      OL  CA  SOPE
    OPENMO        LCASOPE  NMOL        C  ASO   P      ENMOLC     AS
    OPE     NMO      LCA  SO     P     E   NM   OL  CA SO  PE N   MO
          OPENMOLCA            SOPE   NMO        LCAS  O    P  ENMO
     OPENMOLCASOPENMOLCASOPENMOLCASOPENMOLCA
        OPENMOLCASOPENMOLCASOPENMOLCASOPE
            OPENMOLCASOPENMOLCASOPENM
               OPENMOLCASOPENMOLCA        version: v23.10
                   OPENMOLCASO
                       OPE                tag:

 OpenMolcas is free software; you can redistribute it and/or modify it
 under the terms of the GNU Lesser General Public License version 2.1.
 OpenMolcas is distributed in the hope that it will be useful, but it
 is provided "as is" and without any express or implied warranties.
 For more details see the full text of the license in the file
 LICENSE or in <http://www.gnu.org/licenses/>.

                 Copyright (C) The OpenMolcas Authors
           For the author list and the recommended citation,
                   consult the file CONTRIBUTORS.md

           *************************************************
           * pymolcas version py2.25                       *
           *   build 2b27fa14244bdc32cb1957e6230cd793      *
           *   (after the EMIL interpreter by V. Veryazov) *
           *************************************************

configuration info
------------------
Host name: manganese.itc.univie.ac.at (Linux)
C Compiler ID: Clang
C flags: -std=gnu99
Fortran Compiler ID: Intel
Fortran flags: -fpp -i8 -heap-arrays
Definitions: _MOLCAS_;_I8_;_LINUX_
Parallel: OFF (GA=OFF)


   ---------------------------------------------------------------------------
  |
  |           Project: MOLCAS
  |    Submitted from: /public/manganese/scratch/tmp/sascha.925337/WORK/master
  |      Scratch area: /public/manganese/scratch/tmp/sascha.925337/WORK/master
  |   Save outputs to: WORKDIR
  |            Molcas: /usr/license/openmolcas/v23.10
  |
  | Scratch area is NOT empty
  |
  |        MOLCASMEM = 10000
  |    MOLCAS_DRIVER = /usr/license/openmolcas/v23.10/pymolcas
  |    MOLCAS_NPROCS = 1
  |    MOLCAS_SOURCE = /usr/license/openmolcas/v23.10
  | MOLCAS_STRUCTURE = 0
  |
   ---------------------------------------------------------------------------

++ ---------   Input file   ---------

&GATEWAY
COORD=MOLCAS.xyz
GROUP=NOSYM
BASIS=cc-pvdz
AMFI
angmom
0 0 0
BASLIB
/user/sascha/development/eci/sharc_main/examples/SHARC_MOLCAS/basisset

RICD
CDTHreshold=0.0001

&SEWARD

&RASSCF
SPIN=1
NACTEL=8 0 0
INACTIVE=5
RAS2=6
ITERATIONS=200,100
CIROOT=6 6 1
ORBLISTING=NOTHING
PRWF=0.1
THRS=0.000000010000 0.000100000000 0.000100000000

>>> COPY MOLCAS.rasscf.molden MOLCAS.1.molden

>>> COPY MOLCAS.JobIph MOLCAS.1.JobIph

&RASSCF
SPIN=2
NACTEL=7 0 0
INACTIVE=5
RAS2=6
ITERATIONS=200,100
CIROOT=2 2 1
ORBLISTING=NOTHING
PRWF=0.1
THRS=0.000000010000 0.000100000000 0.000100000000

>>> COPY MOLCAS.rasscf.molden MOLCAS.2.molden

>>> COPY MOLCAS.JobIph MOLCAS.2.JobIph

&RASSCF
SPIN=3
NACTEL=8 0 0
INACTIVE=5
RAS2=6
ITERATIONS=200,100
CIROOT=2 2 1
ORBLISTING=NOTHING
PRWF=0.1
THRS=0.000000010000 0.000100000000 0.000100000000

>>> COPY MOLCAS.rasscf.molden MOLCAS.3.molden

>>> COPY MOLCAS.JobIph MOLCAS.3.JobIph

&RASSCF
SPIN=4
NACTEL=7 0 0
INACTIVE=5
RAS2=6
ITERATIONS=200,100
CIROOT=2 2 1
ORBLISTING=NOTHING
PRWF=0.1
THRS=0.000000010000 0.000100000000 0.000100000000

>>> COPY MOLCAS.rasscf.molden MOLCAS.4.molden

>>> COPY MOLCAS.JobIph MOLCAS.4.JobIph

>>> COPY MOLCAS.1.JobIph JOB001

&RASSI
NROFJOBIPHS
1 2
1 2
MEIN

>>> COPY MOLCAS.rassi.h5 MOLCAS.rassi.1.h5

>>> COPY MOLCAS.2.JobIph JOB001

&RASSI
NROFJOBIPHS
1 2
1 2
MEIN

>>> COPY MOLCAS.rassi.h5 MOLCAS.rassi.2.h5

>>> COPY MOLCAS.3.JobIph JOB001

&RASSI
NROFJOBIPHS
1 2
1 2
MEIN

>>> COPY MOLCAS.rassi.h5 MOLCAS.rassi.3.h5

>>> COPY MOLCAS.4.JobIph JOB001

&RASSI
NROFJOBIPHS
1 2
1 2
MEIN

>>> COPY MOLCAS.rassi.h5 MOLCAS.rassi.4.h5

>>> COPY MOLCAS.1.JobIph JOB001

>>> COPY MOLCAS.2.JobIph JOB002

>>> COPY MOLCAS.3.JobIph JOB003

>>> COPY MOLCAS.4.JobIph JOB004

&RASSI
NROFJOBIPHS
4 2 2 2 2
1 2
1 2
1 2
1 2
MEIN
SPINORBIT
SOCOUPLING=0.0d0
EJOB

-- ----------------------------------

--- Start Module: gateway at Thu Mar 21 15:18:22 2024 ---
 
()()()()()()()()()()()()()()()()()()()()()()()()()()()()()()()()()()()()()()()()()()()()()()()()()()

                                              &GATEWAY

                                   only a single process is used
                       available to each process: 10 GB of memory, 1 thread?
                                            pid: 1526903
()()()()()()()()()()()()()()()()()()()()()()()()()()()()()()()()()()()()()()()()()()()()()()()()()()
 
 
 
 Basis Set     1 Label: S.CC-PVDZ
 Basis set is read from library:/user/sascha/development/eci/sharc_main/examples/SHARC_MOLCAS/basisset 
 
 
 Basis Set     2 Label: H.CC-PVDZ
 Basis set is read from library:/user/sascha/development/eci/sharc_main/examples/SHARC_MOLCAS/basisset 
 
++    Symmetry information:
      ---------------------
 
                    Character Table for C1 
 
                             E  
                    a        1  x, y, xy, Rz, z, xz, Ry, yz, Rx, I
--
 
 
++    Basis set information:
      ----------------------
 
 
      Basis set label: S.CC-PVDZ.........
 
      Electronic valence basis set:
      ------------------
      Associated Effective Charge  16.000000 au
      Associated Actual Charge     16.000000 au
      Nuclear Model: Point charge
 
      Shell  nPrim  nBasis  Cartesian Spherical Contaminant
         s      12       4        X                  
         p       8       3        X                  
         d       1       1                 X         
 
 
      Basis set label: H.CC-PVDZ.........
 
      Electronic valence basis set:
      ------------------
      Associated Effective Charge   1.000000 au
      Associated Actual Charge      1.000000 au
      Nuclear Model: Point charge
 
      Shell  nPrim  nBasis  Cartesian Spherical Contaminant
         s       4       2        X                  
         p       1       1        X                  
--
 
 
++    Molecular structure info:
      -------------------------
 
                    ************************************************ 
                    **** Cartesian Coordinates / Bohr, Angstrom **** 
                    ************************************************ 
 
     Center  Label                x              y              z                     x              y              z
        1      S1               0.000000       0.000000       0.001589              0.000000       0.000000       0.000841
        2      H2               0.000000       1.842103       2.235421              0.000000       0.974799       1.182934
        3      H3               0.000000      -1.842103       2.235421              0.000000      -0.974799       1.182934
 
                    *************************************** 
                    *    InterNuclear Distances / Bohr    * 
                    *************************************** 
 
               1 S1            2 H2            3 H3    
    1 S1       0.000000
    2 H2       2.895401        0.000000
    3 H3       2.895401        3.684206        0.000000
 
                    ******************************************* 
                    *    InterNuclear Distances / Angstrom    * 
                    ******************************************* 
 
               1 S1            2 H2            3 H3    
    1 S1       0.000000
    2 H2       1.532180        0.000000
    3 H3       1.532180        1.949598        0.000000
 
                    ************************************** 
                    *    Valence Bond Angles / Degree    * 
                    ************************************** 
                          Atom centers                 Phi
                      2 H2       1 S1       3 H3        79.02
--
 
 
            Nuclear Potential Energy             11.32343694 au
 
--- Stop Module: gateway at Thu Mar 21 15:18:22 2024 /rc=_RC_ALL_IS_WELL_ ---

--- Start Module: seward at Thu Mar 21 15:18:22 2024 ---
 
()()()()()()()()()()()()()()()()()()()()()()()()()()()()()()()()()()()()()()()()()()()()()()()()()()

                                              &SEWARD

                                   only a single process is used
                       available to each process: 10 GB of memory, 1 thread?
                                            pid: 1526912
()()()()()()()()()()()()()()()()()()()()()()()()()()()()()()()()()()()()()()()()()()()()()()()()()()
 
               SEWARD will generate:
                  Multipole Moment integrals up to order  2
                  Kinetic Energy integrals
                  Nuclear Attraction integrals (point charge)
                  One-Electron Hamiltonian integrals
                  Velocity integrals
                  Orbital angular momentum around ( 0.0000  0.0000  0.0000 )
                  Velocity quadrupole around ( 0.0000  0.0000  0.1341 )
                  Atomic mean-field integrals
                  RI decomposed two-electron repulsion integrals stored Cholesky style
                   - acCD auxiliary basis
                   - CD Threshold:   0.10E-03
 
                   Integrals are discarded if absolute value <: 0.10E-13
                   Integral cutoff threshold is set to       <: 0.10E-15
 
            Nuclear Potential Energy             11.32343694 au
 
 
      Basis set specifications :
      Symmetry species         a  
      Basis functions           28
 
 
      Input file to MOLDEN was generated!
 
--- Stop Module: seward at Thu Mar 21 15:18:23 2024 /rc=_RC_ALL_IS_WELL_ ---

*** symbolic link created: INPORB -> MOLCAS.GssOrb
--- Start Module: rasscf at Thu Mar 21 15:18:23 2024 ---
 
()()()()()()()()()()()()()()()()()()()()()()()()()()()()()()()()()()()()()()()()()()()()()()()()()()

                                              &RASSCF

                                   only a single process is used
                       available to each process: 10 GB of memory, 1 thread?
                                            pid: 1526915
()()()()()()()()()()()()()()()()()()()()()()()()()()()()()()()()()()()()()()()()()()()()()()()()()()
 
 
      Header of the ONEINT file:
      --------------------------
      
      Integrals generated by Gateway/Seward, Thu Mar 21 15:18:23 2024
 
 
      OrdInt status: non-squared
 
 
      Cartesian coordinates in Angstrom:
      -----------------------------------------------------
      No.  Label        X            Y            Z        
      -----------------------------------------------------
       1   S1         0.00000000   0.00000000   0.00084100
       2   H2         0.00000000   0.97479900   1.18293400
       3   H3         0.00000000  -0.97479900   1.18293400
      -----------------------------------------------------
      Nuclear repulsion energy =   11.32343694
 
++    Wave function specifications:
      -----------------------------
 
      Number of closed shell electrons          10
      Number of electrons in active shells       8
      Max number of holes in RAS1 space          0
      Max nr of electrons in RAS3 space          0
      Number of inactive orbitals                5
      Number of active orbitals                  6
      Number of secondary orbitals              17
      Spin quantum number                      0.0
      State symmetry                             1
--
 
++    Orbital specifications:
      -----------------------
 
      Symmetry species                           1
                                                 a
      Frozen orbitals                            0
      Inactive orbitals                          5
      Active orbitals                            6
      RAS1 orbitals                              0
      RAS2 orbitals                              6
      RAS3 orbitals                              0
      Secondary orbitals                        17
      Deleted orbitals                           0
      Number of basis functions                 28
--
 
++    CI expansion specifications:
      ----------------------------
 
      Number of CSFs                           105
      Number of determinants                   120
      Number of root(s) required                 6
      Root chosen for geometry opt.              6
      CI roots used                              1     2     3     4     5     6
      weights                                0.167 0.167 0.167 0.167 0.167 0.167
      highest root included in the CI            6
      max. size of the explicit Hamiltonian    105
--
 
++    Optimization specifications:
      ----------------------------
 
      RASSCF algorithm: LK RI/DF
      Maximum number of macro iterations       200
      Maximum number of SX iterations          100
      Threshold for RASSCF energy            0.100E-07
      Threshold for max MO rotation          0.100E-03
      Threshold for max BLB element          0.100E-03
      Level shift parameter                  0.500E+00
      Make Quasi-Newton update
--
 
      Orbitals from runfile: guessorb orbitals
      The MO-coefficients are taken from guessorb on runfile
 
      Total molecular charge    0.00
 
      ************************************************************************************************************************
      *                                                                                                                      *
      *                                            Wave function control section                                             *
      *                                                                                                                      *
      ************************************************************************************************************************
 
 
                                         RASSCF iterations: Energy and convergence statistics
                                         ----------------------------------------------------
 
      Iter CI   SX   CI       RASSCF       Energy    max ROT     max BLB   max BLB  Level Ln srch  Step   QN   Walltime
          iter iter root      energy       change     param      element    value   shift minimum  type update hh:mm:ss
 Nr of preliminary CI iterations:   1
        1   1   66    0  -398.36477083    0.00E+00   0.17E+00*   7  18 1  0.15E+00*  0.00   0.00    SX    NO    0:00:00
        2   1   17    0  -398.43697329   -0.72E-01* -0.70E-01*   6  13 1  0.27E-01*  0.00   0.00    SX    NO    0:00:00
        3   1   15    0  -398.44230286   -0.53E-02*  0.27E-01*  11  13 1 -0.92E-02*  0.00   0.00    SX    NO    0:00:00
        4   1   14    0  -398.44296396   -0.66E-03*  0.12E-01*  11  13 1 -0.38E-02*  0.00   0.00    SX    NO    0:00:00
        5   1   14    0  -398.44306803   -0.10E-03*  0.79E-02*  11  13 1 -0.16E-02*  0.00   1.69    LS   YES    0:00:00
        6   1   11    0  -398.44308867   -0.21E-04*  0.42E-03*   9  25 1  0.35E-03*  0.00   1.02    QN   YES    0:00:00
        7   1   10    0  -398.44308901   -0.34E-06*  0.11E-03*   7  12 1  0.53E-04   0.00   1.15    QN   YES    0:00:00
        8   1    6    0  -398.44308903   -0.20E-07*  0.19E-04   11  14 1  0.70E-05   0.00   1.06    QN   YES    0:00:00
        9   1    5    0  -398.44308903   -0.33E-09   0.48E-05    6  13 1  0.23E-05   0.00   1.27    QN   YES    0:00:00
      Convergence after  9 iterations
       10   1    5    0  -398.44308903   -0.16E-10   0.48E-05    9  15 1  0.26E-06   0.00   1.27    QN   YES    0:00:00
 
      ************************************************************************************************************************
                                                      Wave function printout:
                       occupation of active orbitals, and spin coupling of open shells (u,d: Spin up or down)
      ************************************************************************************************************************
 
      Note: transformation to natural orbitals
      has been made, which may change the order of the CSFs.
 
      printout of CI-coefficients larger than  0.10 for root  1
      energy=    -398.691538
      conf/sym  111111     Coeff  Weight
             1  222200  -0.97171 0.94422
            15  2u22d0   0.10924 0.01193
            38  2ud2ud   0.10920 0.01192
 
      printout of CI-coefficients larger than  0.10 for root  2
      energy=    -398.508200
      conf/sym  111111     Coeff  Weight
             2  222ud0   0.97539 0.95140
            10  22udud   0.10906 0.01189
 
      printout of CI-coefficients larger than  0.10 for root  3
      energy=    -398.478575
      conf/sym  111111     Coeff  Weight
             4  222u0d  -0.96184 0.92514
             8  22ud20  -0.11302 0.01277
            18  2u2dud  -0.16520 0.02729
            51  202u2d  -0.10588 0.01121
 
      printout of CI-coefficients larger than  0.10 for root  4
      energy=    -398.351924
      conf/sym  111111     Coeff  Weight
             9  22u20d  -0.74345 0.55272
            15  2u22d0   0.59730 0.35677
            31  220220  -0.17634 0.03110
            52  202202   0.13930 0.01940
 
      printout of CI-coefficients larger than  0.10 for root  5
      energy=    -398.345878
      conf/sym  111111     Coeff  Weight
             7  22u2d0   0.67353 0.45365
            17  2u220d  -0.67543 0.45621
            32  2202ud   0.13691 0.01875
            37  2ud220  -0.14811 0.02194
            40  2ud202   0.15180 0.02304
            50  2022ud  -0.10075 0.01015
 
      printout of CI-coefficients larger than  0.10 for root  6
      energy=    -398.282419
      conf/sym  111111     Coeff  Weight
             7  22u2d0   0.69812 0.48737
            17  2u220d   0.69811 0.48736
 
      Natural orbitals and occupation numbers for root  1
      sym 1:   1.997304   1.961193   1.964608   1.998624   0.048336   0.029935
 
      Natural orbitals and occupation numbers for root  2
      sym 1:   1.998912   1.986432   1.961516   1.000000   0.999157   0.053982
 
      Natural orbitals and occupation numbers for root  3
      sym 1:   1.998795   1.940168   1.971877   1.000000   0.096915   0.992244
 
      Natural orbitals and occupation numbers for root  4
      sym 1:   1.977020   1.582919   1.363576   1.983678   0.471470   0.621338
 
      Natural orbitals and occupation numbers for root  5
      sym 1:   1.992380   1.465189   1.450376   1.997413   0.550774   0.543869
 
      Natural orbitals and occupation numbers for root  6
      sym 1:   1.990636   1.498251   1.485250   1.998508   0.523339   0.504015
 
      ************************************************************************************************************************
      *                                                                                                                      *
      *                                                    Final results                                                     *
      *                                                                                                                      *
      ************************************************************************************************************************
 
 
++    Wave function specifications:
      -----------------------------
 
      Number of closed shell electrons          10
      Number of electrons in active shells       8
      Max number of holes in RAS1 space          0
      Max nr of electrons in RAS3 space          0
      Number of inactive orbitals                5
      Number of active orbitals                  6
      Number of secondary orbitals              17
      Spin quantum number                      0.0
      State symmetry                             1
--
 
++    Orbital specifications:
      -----------------------
 
      Symmetry species                           1
                                                 a
      Frozen orbitals                            0
      Inactive orbitals                          5
      Active orbitals                            6
      RAS1 orbitals                              0
      RAS2 orbitals                              6
      RAS3 orbitals                              0
      Secondary orbitals                        17
      Deleted orbitals                           0
      Number of basis functions                 28
--
 
++    CI expansion specifications:
      ----------------------------
 
      Number of CSFs                           105
      Number of determinants                   120
      Number of root(s) required                 6
      CI roots used                              1     2     3     4     5     6
      weights                                0.167 0.167 0.167 0.167 0.167 0.167
      highest root included in the CI            6
      Root passed to geometry opt.               6
--
 
++    Final optimization conditions:
      ------------------------------
 
      Average CI energy                            -398.44308903
      RASSCF energy for state  6                   -398.28241941
      Super-CI energy                                -0.00000000
      RASSCF energy change                           -0.00000000
      Max change in MO coefficients              -0.396E-05
      Max non-diagonal density matrix element     0.476E-05
      Maximum BLB matrix element                  0.257E-06
      (orbital pair   9,  15 in symmetry   1)
      Norm of electronic gradient            0.933E-01
--
 
 
      Final state energy(ies):
      ------------------------
 
::    RASSCF root number  1 Total energy:   -398.69153830
::    RASSCF root number  2 Total energy:   -398.50819964
::    RASSCF root number  3 Total energy:   -398.47857529
::    RASSCF root number  4 Total energy:   -398.35192376
::    RASSCF root number  5 Total energy:   -398.34587777
::    RASSCF root number  6 Total energy:   -398.28241941
      Von Neumann Entropy (Root   1) =  0.27649
 

      Mulliken population analysis for root number:  1
      -----------------------------------------------
 
 
++    Molecular charges:
      ------------------
 
      Mulliken charges per centre
      ---------------------------
 
                S1      H2      H3    
      Total   16.1051  0.9475  0.9475
 
      N-E     -0.1051  0.0525  0.0525
 
      Total electronic charge=   18.000000
 
      Total            charge=   -0.000000
--
 
 

      Expectation values of various properties for root number:  1
      -----------------------------------------------------------
 
 
++    Molecular properties:
      ---------------------
 
      Charge (e):
                      =   -0.0000
      Dipole Moment (Debye):
      Origin of the operator (Ang)=    0.0000    0.0000    0.0000
                   X=  5.6145E-12               Y=  3.4331E-10               Z=  9.1922E-01           Total=  9.1922E-01
      Quadrupole Moment (Debye*Ang):
      Origin of the operator (Ang)=    0.0000    0.0000    0.0709
                  XX= -1.6707E+01              XY= -2.1683E-12              XZ=  1.7288E-12              YY= -1.3273E+01
                  YZ= -8.2464E-10              ZZ= -1.3041E+01
      In traceless form (Debye*Ang)
                  XX= -3.5495E+00              XY= -3.2525E-12              XZ=  2.5933E-12              YY=  1.6005E+00
                  YZ= -1.2370E-09              ZZ=  1.9490E+00
--
 
      Von Neumann Entropy (Root   2) =  1.17888
 

      Mulliken population analysis for root number:  2
      -----------------------------------------------
 
 
++    Molecular charges:
      ------------------
 
      Mulliken charges per centre
      ---------------------------
 
                S1      H2      H3    
      Total   15.9281  1.0359  1.0359
 
      N-E      0.0719 -0.0359 -0.0359
 
      Total electronic charge=   18.000000
 
      Total            charge=   -0.000000
--
 
 

      Expectation values of various properties for root number:  2
      -----------------------------------------------------------
 
 
++    Molecular properties:
      ---------------------
 
      Charge (e):
                      =   -0.0000
      Dipole Moment (Debye):
      Origin of the operator (Ang)=    0.0000    0.0000    0.0000
                   X= -2.7448E-12               Y=  1.7311E-08               Z= -1.9428E-02           Total=  1.9428E-02
      Quadrupole Moment (Debye*Ang):
      Origin of the operator (Ang)=    0.0000    0.0000    0.0709
                  XX= -1.4008E+01              XY=  1.7300E-11              XZ= -5.0708E-12              YY= -1.6871E+01
                  YZ=  4.0388E-08              ZZ= -1.6417E+01
      In traceless form (Debye*Ang)
                  XX=  2.6359E+00              XY=  2.5949E-11              XZ= -7.6062E-12              YY= -1.6591E+00
                  YZ=  6.0581E-08              ZZ= -9.7683E-01
--
 
      Von Neumann Entropy (Root   3) =  1.27683
 

      Mulliken population analysis for root number:  3
      -----------------------------------------------
 
 
++    Molecular charges:
      ------------------
 
      Mulliken charges per centre
      ---------------------------
 
                S1      H2      H3    
      Total   15.8158  1.0921  1.0921
 
      N-E      0.1842 -0.0921 -0.0921
 
      Total electronic charge=   18.000000
 
      Total            charge=   -0.000000
--
 
 

      Expectation values of various properties for root number:  3
      -----------------------------------------------------------
 
 
++    Molecular properties:
      ---------------------
 
      Charge (e):
                      =   -0.0000
      Dipole Moment (Debye):
      Origin of the operator (Ang)=    0.0000    0.0000    0.0000
                   X= -2.0421E-12               Y= -3.7891E-10               Z= -1.1945E+00           Total=  1.1945E+00
      Quadrupole Moment (Debye*Ang):
      Origin of the operator (Ang)=    0.0000    0.0000    0.0709
                  XX= -1.4459E+01              XY= -2.6770E-12              XZ= -4.0199E-12              YY= -1.6936E+01
                  YZ= -1.4146E-08              ZZ= -1.8846E+01
      In traceless form (Debye*Ang)
                  XX=  3.4315E+00              XY= -4.0155E-12              XZ= -6.0299E-12              YY= -2.8333E-01
                  YZ= -2.1219E-08              ZZ= -3.1481E+00
--
 
      Von Neumann Entropy (Root   4) =  1.68742
 

      Mulliken population analysis for root number:  4
      -----------------------------------------------
 
 
++    Molecular charges:
      ------------------
 
      Mulliken charges per centre
      ---------------------------
 
                S1      H2      H3    
      Total   16.0051  0.9974  0.9974
 
      N-E     -0.0051  0.0026  0.0026
 
      Total electronic charge=   18.000000
 
      Total            charge=   -0.000000
--
 
 

      Expectation values of various properties for root number:  4
      -----------------------------------------------------------
 
 
++    Molecular properties:
      ---------------------
 
      Charge (e):
                      =   -0.0000
      Dipole Moment (Debye):
      Origin of the operator (Ang)=    0.0000    0.0000    0.0000
                   X=  8.6631E-12               Y=  1.0262E-07               Z= -3.7520E-01           Total=  3.7520E-01
      Quadrupole Moment (Debye*Ang):
      Origin of the operator (Ang)=    0.0000    0.0000    0.0709
                  XX= -1.7069E+01              XY= -3.0652E-12              XZ= -1.8451E-12              YY= -1.5655E+01
                  YZ=  2.7771E-07              ZZ= -1.5962E+01
      In traceless form (Debye*Ang)
                  XX= -1.2610E+00              XY= -4.5978E-12              XZ= -2.7676E-12              YY=  8.6085E-01
                  YZ=  4.1656E-07              ZZ=  4.0018E-01
--
 
      Von Neumann Entropy (Root   5) =  1.69562
 

      Mulliken population analysis for root number:  5
      -----------------------------------------------
 
 
++    Molecular charges:
      ------------------
 
      Mulliken charges per centre
      ---------------------------
 
                S1      H2      H3    
      Total   16.0417  0.9791  0.9791
 
      N-E     -0.0417  0.0209  0.0209
 
      Total electronic charge=   18.000000
 
      Total            charge=   -0.000000
--
 
 

      Expectation values of various properties for root number:  5
      -----------------------------------------------------------
 
 
++    Molecular properties:
      ---------------------
 
      Charge (e):
                      =   -0.0000
      Dipole Moment (Debye):
      Origin of the operator (Ang)=    0.0000    0.0000    0.0000
                   X=  7.7670E-12               Y= -8.8864E-08               Z= -8.1182E-03           Total=  8.1182E-03
      Quadrupole Moment (Debye*Ang):
      Origin of the operator (Ang)=    0.0000    0.0000    0.0709
                  XX= -1.7107E+01              XY=  1.4281E-12              XZ=  8.1187E-13              YY= -1.5351E+01
                  YZ= -2.5357E-07              ZZ= -1.5933E+01
      In traceless form (Debye*Ang)
                  XX= -1.4648E+00              XY=  2.1421E-12              XZ=  1.2178E-12              YY=  1.1692E+00
                  YZ= -3.8035E-07              ZZ=  2.9555E-01
--
 
      Von Neumann Entropy (Root   6) =  1.64602
 

      Mulliken population analysis for root number:  6
      -----------------------------------------------
 
 
++    Molecular charges:
      ------------------
 
      Mulliken charges per centre
      ---------------------------
 
                S1      H2      H3    
      Total   16.0055  0.9973  0.9973
 
      N-E     -0.0055  0.0027  0.0027
 
      Total electronic charge=   18.000000
 
      Total            charge=   -0.000000
--
 
 

      Expectation values of various properties for root number:  6
      -----------------------------------------------------------
 
 
++    Molecular properties:
      ---------------------
 
      Charge (e):
                      =   -0.0000
      Dipole Moment (Debye):
      Origin of the operator (Ang)=    0.0000    0.0000    0.0000
                   X=  7.8164E-12               Y=  1.5993E-08               Z=  3.6480E-01           Total=  3.6480E-01
      Quadrupole Moment (Debye*Ang):
      Origin of the operator (Ang)=    0.0000    0.0000    0.0709
                  XX= -1.7067E+01              XY=  2.9849E-12              XZ=  3.4540E-13              YY= -1.5251E+01
                  YZ=  4.4593E-08              ZZ= -1.5770E+01
      In traceless form (Debye*Ang)
                  XX= -1.5569E+00              XY=  4.4773E-12              XZ=  5.1810E-13              YY=  1.1678E+00
                  YZ=  6.6890E-08              ZZ=  3.8913E-01
--
 
 
      Input file to MOLDEN was generated!
 
 
      Input file to MOLDEN was generated!
 
 
      Input file to MOLDEN was generated!
 
 
      Input file to MOLDEN was generated!
 
 
      Input file to MOLDEN was generated!
 
 
      Input file to MOLDEN was generated!
 
 
      Input file to MOLDEN was generated!
 
      Average orbitals are written to the RASORB file
      Natural orbitals for root   1 are written to the RASORB.1 file
      Natural orbitals for root   2 are written to the RASORB.2 file
      Natural orbitals for root   3 are written to the RASORB.3 file
      Natural orbitals for root   4 are written to the RASORB.4 file
      Natural orbitals for root   5 are written to the RASORB.5 file
      Natural orbitals for root   6 are written to the RASORB.6 file
      Spin density orbitals for root   1 are written to the SPDORB.1 file
      Spin density orbitals for root   2 are written to the SPDORB.2 file
      Spin density orbitals for root   3 are written to the SPDORB.3 file
      Spin density orbitals for root   4 are written to the SPDORB.4 file
      Spin density orbitals for root   5 are written to the SPDORB.5 file
      Spin density orbitals for root   6 are written to the SPDORB.6 file
 
--- Stop Module: rasscf at Thu Mar 21 15:18:26 2024 /rc=_RC_ALL_IS_WELL_ ---
--- Module rasscf spent 2 seconds ---

>>> COPY MOLCAS.rasscf.molden MOLCAS.1.molden

>>> COPY MOLCAS.JobIph MOLCAS.1.JobIph

*** symbolic link created: INPORB -> MOLCAS.RasOrb
--- Start Module: rasscf at Thu Mar 21 15:18:26 2024 ---
 
()()()()()()()()()()()()()()()()()()()()()()()()()()()()()()()()()()()()()()()()()()()()()()()()()()

                                              &RASSCF

                                   only a single process is used
                       available to each process: 10 GB of memory, 1 thread?
                                            pid: 1526933
()()()()()()()()()()()()()()()()()()()()()()()()()()()()()()()()()()()()()()()()()()()()()()()()()()
 
 
      Header of the ONEINT file:
      --------------------------
      
      Integrals generated by Gateway/Seward, Thu Mar 21 15:18:23 2024
 
 
      OrdInt status: non-squared
 
 
      Cartesian coordinates in Angstrom:
      -----------------------------------------------------
      No.  Label        X            Y            Z        
      -----------------------------------------------------
       1   S1         0.00000000   0.00000000   0.00084100
       2   H2         0.00000000   0.97479900   1.18293400
       3   H3         0.00000000  -0.97479900   1.18293400
      -----------------------------------------------------
      Nuclear repulsion energy =   11.32343694
 
++    Wave function specifications:
      -----------------------------
 
      Number of closed shell electrons          10
      Number of electrons in active shells       7
      Max number of holes in RAS1 space          0
      Max nr of electrons in RAS3 space          0
      Number of inactive orbitals                5
      Number of active orbitals                  6
      Number of secondary orbitals              17
      Spin quantum number                      0.5
      State symmetry                             1
--
 
++    Orbital specifications:
      -----------------------
 
      Symmetry species                           1
                                                 a
      Frozen orbitals                            0
      Inactive orbitals                          5
      Active orbitals                            6
      RAS1 orbitals                              0
      RAS2 orbitals                              6
      RAS3 orbitals                              0
      Secondary orbitals                        17
      Deleted orbitals                           0
      Number of basis functions                 28
--
 
++    CI expansion specifications:
      ----------------------------
 
      Number of CSFs                           210
      Number of determinants                   300
      Number of root(s) required                 2
      Root chosen for geometry opt.              2
      CI roots used                              1     2
      weights                                0.500 0.500
      highest root included in the CI            2
      max. size of the explicit Hamiltonian    200
--
 
++    Optimization specifications:
      ----------------------------
 
      RASSCF algorithm: LK RI/DF
      Maximum number of macro iterations       200
      Maximum number of SX iterations          100
      Threshold for RASSCF energy            0.100E-07
      Threshold for max MO rotation          0.100E-03
      Threshold for max BLB element          0.100E-03
      Level shift parameter                  0.500E+00
      Make Quasi-Newton update
--
 
      Orbitals from runfile: rasscf orbitals
      The MO-coefficients are taken from rasscf orbitals on runfile
 
      Total molecular charge    1.00
 
      ************************************************************************************************************************
      *                                                                                                                      *
      *                                            Wave function control section                                             *
      *                                                                                                                      *
      ************************************************************************************************************************
 
 
                                         RASSCF iterations: Energy and convergence statistics
                                         ----------------------------------------------------
 
      Iter CI   SX   CI       RASSCF       Energy    max ROT     max BLB   max BLB  Level Ln srch  Step   QN   Walltime
          iter iter root      energy       change     param      element    value   shift minimum  type update hh:mm:ss
 Nr of preliminary CI iterations:   1
        1   1   86    0  -398.27093699    0.00E+00   0.33E+00*   7  12 1 -0.82E-01*  0.00   0.00    SX    NO    0:00:00
        2   3    7    0  -398.30263218   -0.32E-01*  0.78E-01*   7  21 1 -0.13E-01*  0.00   0.00    SX    NO    0:00:00
        3   2    6    0  -398.30454165   -0.19E-02* -0.33E-01*   7  12 1 -0.52E-02*  0.00   0.00    SX    NO    0:00:00
        4   3    6    0  -398.30481215   -0.27E-03*  0.15E-01*   7  12 1 -0.19E-02*  0.00   0.00    SX    NO    0:00:00
        5   3    6    0  -398.30486910   -0.57E-04*  0.15E-01*   7  12 1 -0.83E-03*  0.00   2.02    LS   YES    0:00:00
        6   3    6    0  -398.30488853   -0.19E-04* -0.57E-02*   7  21 1  0.41E-03*  0.00   1.04    QN   YES    0:00:00
        7   3    5    0  -398.30489341   -0.49E-05* -0.84E-02*  11  16 1 -0.21E-03*  0.00   2.50    LS   YES    0:00:00
        8   3    5    0  -398.30489630   -0.29E-05* -0.11E-02*   7  21 1 -0.39E-03*  0.00   1.07    QN   YES    0:00:00
        9   3    5    0  -398.30489675   -0.45E-06* -0.64E-03*   7  21 1 -0.11E-03*  0.00   1.38    QN   YES    0:00:00
       10   3    4    0  -398.30489681   -0.61E-07*  0.11E-03*   9  15 1 -0.12E-04   0.00   1.09    QN   YES    0:00:00
       11   1    4    0  -398.30489681   -0.14E-08   0.62E-04    7  21 1  0.41E-05   0.00   2.50    QN   YES    0:00:00
      Convergence after 11 iterations
       12   1    4    0  -398.30489681   -0.23E-09   0.62E-04    6  14 1 -0.99E-06   0.00   2.50    QN   YES    0:00:00
 
      ************************************************************************************************************************
                                                      Wave function printout:
                       occupation of active orbitals, and spin coupling of open shells (u,d: Spin up or down)
      ************************************************************************************************************************
 
      Note: transformation to natural orbitals
      has been made, which may change the order of the CSFs.
 
      printout of CI-coefficients larger than  0.10 for root  1
      energy=    -398.370399
      conf/sym  111111     Coeff  Weight
             1  222u00   0.97458 0.94981
            56  202u20   0.10693 0.01143
 
      printout of CI-coefficients larger than  0.10 for root  2
      energy=    -398.239395
      conf/sym  111111     Coeff  Weight
             4  22u200  -0.97423 0.94913
           124  20u220  -0.10810 0.01169
 
      Natural orbitals and occupation numbers for root  1
      sym 1:   1.994835   1.950585   1.960836   1.000000   0.056261   0.037483
 
      Natural orbitals and occupation numbers for root  2
      sym 1:   1.977851   1.938959   1.006335   1.997829   0.047713   0.031313
 
      ************************************************************************************************************************
      *                                                                                                                      *
      *                                                    Final results                                                     *
      *                                                                                                                      *
      ************************************************************************************************************************
 
 
++    Wave function specifications:
      -----------------------------
 
      Number of closed shell electrons          10
      Number of electrons in active shells       7
      Max number of holes in RAS1 space          0
      Max nr of electrons in RAS3 space          0
      Number of inactive orbitals                5
      Number of active orbitals                  6
      Number of secondary orbitals              17
      Spin quantum number                      0.5
      State symmetry                             1
--
 
++    Orbital specifications:
      -----------------------
 
      Symmetry species                           1
                                                 a
      Frozen orbitals                            0
      Inactive orbitals                          5
      Active orbitals                            6
      RAS1 orbitals                              0
      RAS2 orbitals                              6
      RAS3 orbitals                              0
      Secondary orbitals                        17
      Deleted orbitals                           0
      Number of basis functions                 28
--
 
++    CI expansion specifications:
      ----------------------------
 
      Number of CSFs                           210
      Number of determinants                   300
      Number of root(s) required                 2
      CI roots used                              1     2
      weights                                0.500 0.500
      highest root included in the CI            2
      Root passed to geometry opt.               2
--
 
++    Final optimization conditions:
      ------------------------------
 
      Average CI energy                            -398.30489681
      RASSCF energy for state  2                   -398.23939495
      Super-CI energy                                -0.00000000
      RASSCF energy change                            0.00000000
      Max change in MO coefficients              -0.672E-04
      Max non-diagonal density matrix element     0.618E-04
      Maximum BLB matrix element                 -0.989E-06
      (orbital pair   6,  14 in symmetry   1)
      Norm of electronic gradient            0.472E-01
--
 
 
      Final state energy(ies):
      ------------------------
 
::    RASSCF root number  1 Total energy:   -398.37039867
::    RASSCF root number  2 Total energy:   -398.23939495
      Von Neumann Entropy (Root   1) =  0.81935
 

      Mulliken population analysis for root number:  1
      -----------------------------------------------
 
 
++    Molecular charges:
      ------------------
 
      Mulliken charges per centre
      ---------------------------
 
                S1      H2      H3    
      Total   15.4613  0.7694  0.7694
 
      N-E      0.5387  0.2306  0.2306
 
      Total electronic charge=   17.000000
 
      Total            charge=    1.000000
--
 
 

      Expectation values of various properties for root number:  1
      -----------------------------------------------------------
 
 
++    Molecular properties:
      ---------------------
 
      Charge (e):
                      =    1.0000
      Dipole Moment (Debye):
      Origin of the operator (Ang)=    0.0000    0.0000    0.0000
                   X= -7.1714E-14               Y= -6.0989E-10               Z=  2.6173E+00           Total=  2.6173E+00
      Center of Charge (Ang)
                     X=   -0.00000000               Y=   -0.00000000               Z=    0.54490531
      Quadrupole Moment (Debye*Ang):
      Origin of the operator (Ang)=    0.0000    0.0000    0.0709
                  XX= -1.1643E+01              XY=  8.6115E-11              XZ=  5.7367E-13              YY= -9.5522E+00
                  YZ= -6.1764E-10              ZZ= -8.8148E+00
      In traceless form (Debye*Ang)
                  XX= -2.4596E+00              XY=  1.2917E-10              XZ=  8.6050E-13              YY=  6.7679E-01
                  YZ= -9.2645E-10              ZZ=  1.7828E+00
--
 

      Mulliken spin population analysis for root number:  1
      ---------------------------------------------------
 
 
++    Molecular charges:
      ------------------
 
      Mulliken spin population per centre
      ---------------------------
 
                S1      H2      H3    
      Total    1.0899 -0.0449 -0.0449
 
      Total electronic spin=    1.000000
--
 
 
      Von Neumann Entropy (Root   2) =  0.78186
 

      Mulliken population analysis for root number:  2
      -----------------------------------------------
 
 
++    Molecular charges:
      ------------------
 
      Mulliken charges per centre
      ---------------------------
 
                S1      H2      H3    
      Total   15.6230  0.6885  0.6885
 
      N-E      0.3770  0.3115  0.3115
 
      Total electronic charge=   17.000000
 
      Total            charge=    1.000000
--
 
 

      Expectation values of various properties for root number:  2
      -----------------------------------------------------------
 
 
++    Molecular properties:
      ---------------------
 
      Charge (e):
                      =    1.0000
      Dipole Moment (Debye):
      Origin of the operator (Ang)=    0.0000    0.0000    0.0000
                   X= -3.7848E-13               Y= -3.5099E-09               Z=  2.5757E+00           Total=  2.5757E+00
      Center of Charge (Ang)
                     X=   -0.00000000               Y=   -0.00000000               Z=    0.53624174
      Quadrupole Moment (Debye*Ang):
      Origin of the operator (Ang)=    0.0000    0.0000    0.0709
                  XX= -1.4163E+01              XY=  1.3149E-10              XZ=  1.2458E-12              YY= -8.9685E+00
                  YZ= -7.1714E-09              ZZ= -6.1887E+00
      In traceless form (Debye*Ang)
                  XX= -6.5840E+00              XY=  1.9724E-10              XZ=  1.8687E-12              YY=  1.2071E+00
                  YZ= -1.0757E-08              ZZ=  5.3768E+00
--
 

      Mulliken spin population analysis for root number:  2
      ---------------------------------------------------
 
 
++    Molecular charges:
      ------------------
 
      Mulliken spin population per centre
      ---------------------------
 
                S1      H2      H3    
      Total    0.6690  0.1655  0.1655
 
      Total electronic spin=    1.000000
--
 
 
 
      Input file to MOLDEN was generated!
 
 
      Input file to MOLDEN was generated!
 
 
      Input file to MOLDEN was generated!
 
      Average orbitals are written to the RASORB file
      Natural orbitals for root   1 are written to the RASORB.1 file
      Natural orbitals for root   2 are written to the RASORB.2 file
      Spin density orbitals for root   1 are written to the SPDORB.1 file
      Spin density orbitals for root   2 are written to the SPDORB.2 file
 
--- Stop Module: rasscf at Thu Mar 21 15:18:28 2024 /rc=_RC_ALL_IS_WELL_ ---
--- Module rasscf spent 2 seconds ---

>>> COPY MOLCAS.rasscf.molden MOLCAS.2.molden

>>> COPY MOLCAS.JobIph MOLCAS.2.JobIph

*** symbolic link created: INPORB -> MOLCAS.RasOrb
--- Start Module: rasscf at Thu Mar 21 15:18:28 2024 ---
 
()()()()()()()()()()()()()()()()()()()()()()()()()()()()()()()()()()()()()()()()()()()()()()()()()()

                                              &RASSCF

                                   only a single process is used
                       available to each process: 10 GB of memory, 1 thread?
                                            pid: 1526979
()()()()()()()()()()()()()()()()()()()()()()()()()()()()()()()()()()()()()()()()()()()()()()()()()()
 
 
      Header of the ONEINT file:
      --------------------------
      
      Integrals generated by Gateway/Seward, Thu Mar 21 15:18:23 2024
 
 
      OrdInt status: non-squared
 
 
      Cartesian coordinates in Angstrom:
      -----------------------------------------------------
      No.  Label        X            Y            Z        
      -----------------------------------------------------
       1   S1         0.00000000   0.00000000   0.00084100
       2   H2         0.00000000   0.97479900   1.18293400
       3   H3         0.00000000  -0.97479900   1.18293400
      -----------------------------------------------------
      Nuclear repulsion energy =   11.32343694
 
++    Wave function specifications:
      -----------------------------
 
      Number of closed shell electrons          10
      Number of electrons in active shells       8
      Max number of holes in RAS1 space          0
      Max nr of electrons in RAS3 space          0
      Number of inactive orbitals                5
      Number of active orbitals                  6
      Number of secondary orbitals              17
      Spin quantum number                      1.0
      State symmetry                             1
--
 
++    Orbital specifications:
      -----------------------
 
      Symmetry species                           1
                                                 a
      Frozen orbitals                            0
      Inactive orbitals                          5
      Active orbitals                            6
      RAS1 orbitals                              0
      RAS2 orbitals                              6
      RAS3 orbitals                              0
      Secondary orbitals                        17
      Deleted orbitals                           0
      Number of basis functions                 28
--
 
++    CI expansion specifications:
      ----------------------------
 
      Number of CSFs                           105
      Number of determinants                   120
      Number of root(s) required                 2
      Root chosen for geometry opt.              2
      CI roots used                              1     2
      weights                                0.500 0.500
      highest root included in the CI            2
      max. size of the explicit Hamiltonian    105
--
 
++    Optimization specifications:
      ----------------------------
 
      RASSCF algorithm: LK RI/DF
      Maximum number of macro iterations       200
      Maximum number of SX iterations          100
      Threshold for RASSCF energy            0.100E-07
      Threshold for max MO rotation          0.100E-03
      Threshold for max BLB element          0.100E-03
      Level shift parameter                  0.500E+00
      Make Quasi-Newton update
--
 
      Orbitals from runfile: rasscf orbitals
      The MO-coefficients are taken from rasscf orbitals on runfile
 
      Total molecular charge    0.00
 
      ************************************************************************************************************************
      *                                                                                                                      *
      *                                            Wave function control section                                             *
      *                                                                                                                      *
      ************************************************************************************************************************
 
 
                                         RASSCF iterations: Energy and convergence statistics
                                         ----------------------------------------------------
 
      Iter CI   SX   CI       RASSCF       Energy    max ROT     max BLB   max BLB  Level Ln srch  Step   QN   Walltime
          iter iter root      energy       change     param      element    value   shift minimum  type update hh:mm:ss
 Nr of preliminary CI iterations:   1
        1   1   29    0  -398.39062879    0.00E+00   0.21E+00*  10  16 1 -0.17E+00*  0.26   0.00    SX    NO    0:00:00
        2   1   14    0  -398.48706408   -0.96E-01*  0.68E-01*  10  16 1 -0.34E-01*  0.07   0.00    SX    NO    0:00:00
        3   1   10    0  -398.49238306   -0.53E-02*  0.45E-01*  10  28 1  0.63E-02*  0.03   0.00    SX    NO    0:00:00
        4   1    9    0  -398.49303179   -0.65E-03* -0.27E-01*  11  12 1 -0.32E-02*  0.01   0.00    SX    NO    0:00:00
        5   1    9    0  -398.49320998   -0.18E-03* -0.30E-01*  11  12 1 -0.19E-02*  0.00   2.18    LS   YES    0:00:00
        6   1   11    0  -398.49649918   -0.33E-02* -0.17E-01*  11  12 1 -0.56E-01*  0.03   1.37    QN   YES    0:00:00
        7   1   16    0  -398.49409196    0.24E-02*  0.15E+00*  11  12 1 -0.59E-01*  0.02  -0.50    QN   YES    0:00:00
        8   1   10    0  -398.51164016   -0.18E-01* -0.51E-01*   5  15 1  0.97E-01*  0.00   1.41    QN   YES    0:00:00
        9   1    8    0  -398.51643899   -0.48E-02*  0.46E-01*   5  15 1  0.66E-01*  0.00   1.52    QN   YES    0:00:00
       10   1    8    0  -398.51797780   -0.15E-02* -0.13E-01*   5  15 1  0.26E-01*  0.00   1.27    QN   YES    0:00:00
       11   1    7    0  -398.51818408   -0.21E-03*  0.33E-02*   5  15 1  0.27E-02*  0.00   1.11    QN   YES    0:00:00
       12   1    6    0  -398.51819532   -0.11E-04*  0.73E-03*   7  21 1 -0.33E-03*  0.00   1.07    QN   YES    0:00:00
       13   1    5    0  -398.51819571   -0.39E-06*  0.48E-04    7  13 1  0.61E-04   0.00   1.05    QN   YES    0:00:00
       14   1    4    0  -398.51819572   -0.79E-08   0.10E-04    7  13 1  0.14E-04   0.00   1.15    QN   YES    0:00:00
      Convergence after 14 iterations
       15   1    4    0  -398.51819572   -0.30E-09   0.10E-04    8  17 1 -0.10E-05   0.00   1.15    QN   YES    0:00:00
 
      ************************************************************************************************************************
                                                      Wave function printout:
                       occupation of active orbitals, and spin coupling of open shells (u,d: Spin up or down)
      ************************************************************************************************************************
 
      Note: transformation to natural orbitals
      has been made, which may change the order of the CSFs.
 
      printout of CI-coefficients larger than  0.10 for root  1
      energy=    -398.528356
      conf/sym  111111     Coeff  Weight
             1  222uu0  -0.98001 0.96042
             8  22uudu   0.10863 0.01180
 
      printout of CI-coefficients larger than  0.10 for root  2
      energy=    -398.508035
      conf/sym  111111     Coeff  Weight
             2  222u0u  -0.97301 0.94674
             5  22uu20   0.12315 0.01517
            19  2u2uud   0.11563 0.01337
            41  202u2u  -0.10267 0.01054
 
      Natural orbitals and occupation numbers for root  1
      sym 1:   1.996945   1.979101   1.969661   1.000000   0.999589   0.054703
 
      Natural orbitals and occupation numbers for root  2
      sym 1:   1.998610   1.957387   1.967400   1.000000   0.084591   0.992013
 
      ************************************************************************************************************************
      *                                                                                                                      *
      *                                                    Final results                                                     *
      *                                                                                                                      *
      ************************************************************************************************************************
 
 
++    Wave function specifications:
      -----------------------------
 
      Number of closed shell electrons          10
      Number of electrons in active shells       8
      Max number of holes in RAS1 space          0
      Max nr of electrons in RAS3 space          0
      Number of inactive orbitals                5
      Number of active orbitals                  6
      Number of secondary orbitals              17
      Spin quantum number                      1.0
      State symmetry                             1
--
 
++    Orbital specifications:
      -----------------------
 
      Symmetry species                           1
                                                 a
      Frozen orbitals                            0
      Inactive orbitals                          5
      Active orbitals                            6
      RAS1 orbitals                              0
      RAS2 orbitals                              6
      RAS3 orbitals                              0
      Secondary orbitals                        17
      Deleted orbitals                           0
      Number of basis functions                 28
--
 
++    CI expansion specifications:
      ----------------------------
 
      Number of CSFs                           105
      Number of determinants                   120
      Number of root(s) required                 2
      CI roots used                              1     2
      weights                                0.500 0.500
      highest root included in the CI            2
      Root passed to geometry opt.               2
--
 
++    Final optimization conditions:
      ------------------------------
 
      Average CI energy                            -398.51819572
      RASSCF energy for state  2                   -398.50803510
      Super-CI energy                                -0.00000000
      RASSCF energy change                           -0.00000000
      Max change in MO coefficients               0.300E-04
      Max non-diagonal density matrix element     0.102E-04
      Maximum BLB matrix element                 -0.101E-05
      (orbital pair   8,  17 in symmetry   1)
      Norm of electronic gradient            0.411E-01
--
 
 
      Final state energy(ies):
      ------------------------
 
::    RASSCF root number  1 Total energy:   -398.52835634
::    RASSCF root number  2 Total energy:   -398.50803510
      Von Neumann Entropy (Root   1) =  1.18102
 

      Mulliken population analysis for root number:  1
      -----------------------------------------------
 
 
++    Molecular charges:
      ------------------
 
      Mulliken charges per centre
      ---------------------------
 
                S1      H2      H3    
      Total   15.8531  1.0734  1.0734
 
      N-E      0.1469 -0.0734 -0.0734
 
      Total electronic charge=   18.000000
 
      Total            charge=   -0.000000
--
 
 

      Expectation values of various properties for root number:  1
      -----------------------------------------------------------
 
 
++    Molecular properties:
      ---------------------
 
      Charge (e):
                      =   -0.0000
      Dipole Moment (Debye):
      Origin of the operator (Ang)=    0.0000    0.0000    0.0000
                   X=  4.1348E-13               Y=  3.5072E-09               Z= -2.9688E-01           Total=  2.9688E-01
      Quadrupole Moment (Debye*Ang):
      Origin of the operator (Ang)=    0.0000    0.0000    0.0709
                  XX= -1.3769E+01              XY= -7.1828E-15              XZ= -6.4884E-13              YY= -1.6842E+01
                  YZ=  6.6029E-09              ZZ= -1.6518E+01
      In traceless form (Debye*Ang)
                  XX=  2.9110E+00              XY= -1.0774E-14              XZ= -9.7325E-13              YY= -1.6988E+00
                  YZ=  9.9044E-09              ZZ= -1.2122E+00
--
 

      Mulliken spin population analysis for root number:  1
      ---------------------------------------------------
 
 
++    Molecular charges:
      ------------------
 
      Mulliken spin population per centre
      ---------------------------
 
                S1      H2      H3    
      Total    1.3712  0.3144  0.3144
 
      Total electronic spin=    2.000000
--
 
 
      Von Neumann Entropy (Root   2) =  1.24949
 

      Mulliken population analysis for root number:  2
      -----------------------------------------------
 
 
++    Molecular charges:
      ------------------
 
      Mulliken charges per centre
      ---------------------------
 
                S1      H2      H3    
      Total   15.7360  1.1320  1.1320
 
      N-E      0.2640 -0.1320 -0.1320
 
      Total electronic charge=   18.000000
 
      Total            charge=   -0.000000
--
 
 

      Expectation values of various properties for root number:  2
      -----------------------------------------------------------
 
 
++    Molecular properties:
      ---------------------
 
      Charge (e):
                      =   -0.0000
      Dipole Moment (Debye):
      Origin of the operator (Ang)=    0.0000    0.0000    0.0000
                   X=  4.9813E-13               Y=  2.2696E-09               Z= -1.0636E+00           Total=  1.0636E+00
      Quadrupole Moment (Debye*Ang):
      Origin of the operator (Ang)=    0.0000    0.0000    0.0709
                  XX= -1.4223E+01              XY= -2.0427E-13              XZ= -8.2701E-13              YY= -1.6865E+01
                  YZ=  3.1247E-09              ZZ= -1.8594E+01
      In traceless form (Debye*Ang)
                  XX=  3.5069E+00              XY= -3.0641E-13              XZ= -1.2405E-12              YY= -4.5635E-01
                  YZ=  4.6871E-09              ZZ= -3.0506E+00
--
 

      Mulliken spin population analysis for root number:  2
      ---------------------------------------------------
 
 
++    Molecular charges:
      ------------------
 
      Mulliken spin population per centre
      ---------------------------
 
                S1      H2      H3    
      Total    1.2043  0.3979  0.3979
 
      Total electronic spin=    2.000000
--
 
 
 
      Input file to MOLDEN was generated!
 
 
      Input file to MOLDEN was generated!
 
 
      Input file to MOLDEN was generated!
 
      Average orbitals are written to the RASORB file
      Natural orbitals for root   1 are written to the RASORB.1 file
      Natural orbitals for root   2 are written to the RASORB.2 file
      Spin density orbitals for root   1 are written to the SPDORB.1 file
      Spin density orbitals for root   2 are written to the SPDORB.2 file
 
--- Stop Module: rasscf at Thu Mar 21 15:18:30 2024 /rc=_RC_ALL_IS_WELL_ ---
--- Module rasscf spent 1 second ---

>>> COPY MOLCAS.rasscf.molden MOLCAS.3.molden

>>> COPY MOLCAS.JobIph MOLCAS.3.JobIph

*** symbolic link created: INPORB -> MOLCAS.RasOrb
--- Start Module: rasscf at Thu Mar 21 15:18:30 2024 ---
 
()()()()()()()()()()()()()()()()()()()()()()()()()()()()()()()()()()()()()()()()()()()()()()()()()()

                                              &RASSCF

                                   only a single process is used
                       available to each process: 10 GB of memory, 1 thread?
                                            pid: 1527017
()()()()()()()()()()()()()()()()()()()()()()()()()()()()()()()()()()()()()()()()()()()()()()()()()()
 
 
      Header of the ONEINT file:
      --------------------------
      
      Integrals generated by Gateway/Seward, Thu Mar 21 15:18:23 2024
 
 
      OrdInt status: non-squared
 
 
      Cartesian coordinates in Angstrom:
      -----------------------------------------------------
      No.  Label        X            Y            Z        
      -----------------------------------------------------
       1   S1         0.00000000   0.00000000   0.00084100
       2   H2         0.00000000   0.97479900   1.18293400
       3   H3         0.00000000  -0.97479900   1.18293400
      -----------------------------------------------------
      Nuclear repulsion energy =   11.32343694
 
++    Wave function specifications:
      -----------------------------
 
      Number of closed shell electrons          10
      Number of electrons in active shells       7
      Max number of holes in RAS1 space          0
      Max nr of electrons in RAS3 space          0
      Number of inactive orbitals                5
      Number of active orbitals                  6
      Number of secondary orbitals              17
      Spin quantum number                      1.5
      State symmetry                             1
--
 
++    Orbital specifications:
      -----------------------
 
      Symmetry species                           1
                                                 a
      Frozen orbitals                            0
      Inactive orbitals                          5
      Active orbitals                            6
      RAS1 orbitals                              0
      RAS2 orbitals                              6
      RAS3 orbitals                              0
      Secondary orbitals                        17
      Deleted orbitals                           0
      Number of basis functions                 28
--
 
++    CI expansion specifications:
      ----------------------------
 
      Number of CSFs                            84
      Number of determinants                    90
      Number of root(s) required                 2
      Root chosen for geometry opt.              2
      CI roots used                              1     2
      weights                                0.500 0.500
      highest root included in the CI            2
      max. size of the explicit Hamiltonian     84
--
 
++    Optimization specifications:
      ----------------------------
 
      RASSCF algorithm: LK RI/DF
      Maximum number of macro iterations       200
      Maximum number of SX iterations          100
      Threshold for RASSCF energy            0.100E-07
      Threshold for max MO rotation          0.100E-03
      Threshold for max BLB element          0.100E-03
      Level shift parameter                  0.500E+00
      Make Quasi-Newton update
--
 
      Orbitals from runfile: rasscf orbitals
      The MO-coefficients are taken from rasscf orbitals on runfile
 
      Total molecular charge    1.00
 
      ************************************************************************************************************************
      *                                                                                                                      *
      *                                            Wave function control section                                             *
      *                                                                                                                      *
      ************************************************************************************************************************
 
 
                                         RASSCF iterations: Energy and convergence statistics
                                         ----------------------------------------------------
 
      Iter CI   SX   CI       RASSCF       Energy    max ROT     max BLB   max BLB  Level Ln srch  Step   QN   Walltime
          iter iter root      energy       change     param      element    value   shift minimum  type update hh:mm:ss
 Nr of preliminary CI iterations:   1
        1   1   32    0  -398.07725272    0.00E+00   0.15E+00*   7  12 1 -0.88E-01*  0.00   0.00    SX    NO    0:00:00
        2   1   10    0  -398.11014196   -0.33E-01*  0.41E-01*   7  21 1 -0.17E-01*  0.00   0.00    SX    NO    0:00:00
        3   1    9    0  -398.11120034   -0.11E-02*  0.13E-01*   7  21 1 -0.37E-02*  0.00   0.00    SX    NO    0:00:00
        4   1    9    0  -398.11128946   -0.89E-04* -0.45E-02*   7  21 1 -0.12E-02*  0.00   0.00    SX    NO    0:00:00
        5   1    8    0  -398.11129904   -0.96E-05* -0.23E-02*   7  21 1 -0.36E-03*  0.00   1.51    LS   YES    0:00:00
        6   1    7    0  -398.11130029   -0.13E-05* -0.18E-03*   4  17 1 -0.11E-03*  0.00   1.01    QN   YES    0:00:00
        7   1    5    0  -398.11130034   -0.49E-07*  0.64E-04    8  16 1 -0.20E-04   0.00   1.04    QN   YES    0:00:00
        8   1    4    0  -398.11130035   -0.29E-08   0.18E-04    7  12 1  0.45E-05   0.00   1.20    QN   YES    0:00:00
      Convergence after  8 iterations
        9   1    4    0  -398.11130035    0.16E-10   0.18E-04    7  21 1 -0.80E-06   0.00   1.20    QN   YES    0:00:00
 
      ************************************************************************************************************************
                                                      Wave function printout:
                       occupation of active orbitals, and spin coupling of open shells (u,d: Spin up or down)
      ************************************************************************************************************************
 
      Note: transformation to natural orbitals
      has been made, which may change the order of the CSFs.
 
      printout of CI-coefficients larger than  0.10 for root  1
      energy=    -398.112411
      conf/sym  111111     Coeff  Weight
             2  22uu0u   0.46790 0.21893
             4  2u2uu0   0.86409 0.74665
 
      printout of CI-coefficients larger than  0.10 for root  2
      energy=    -398.110190
      conf/sym  111111     Coeff  Weight
             1  22uuu0  -0.88207 0.77805
             5  2u2u0u  -0.43173 0.18639
 
      Natural orbitals and occupation numbers for root  1
      sym 1:   1.992348   1.217165   1.740403   1.000000   0.788770   0.261314
 
      Natural orbitals and occupation numbers for root  2
      sym 1:   1.989145   1.779257   1.180815   1.000000   0.823279   0.227504
 
      ************************************************************************************************************************
      *                                                                                                                      *
      *                                                    Final results                                                     *
      *                                                                                                                      *
      ************************************************************************************************************************
 
 
++    Wave function specifications:
      -----------------------------
 
      Number of closed shell electrons          10
      Number of electrons in active shells       7
      Max number of holes in RAS1 space          0
      Max nr of electrons in RAS3 space          0
      Number of inactive orbitals                5
      Number of active orbitals                  6
      Number of secondary orbitals              17
      Spin quantum number                      1.5
      State symmetry                             1
--
 
++    Orbital specifications:
      -----------------------
 
      Symmetry species                           1
                                                 a
      Frozen orbitals                            0
      Inactive orbitals                          5
      Active orbitals                            6
      RAS1 orbitals                              0
      RAS2 orbitals                              6
      RAS3 orbitals                              0
      Secondary orbitals                        17
      Deleted orbitals                           0
      Number of basis functions                 28
--
 
++    CI expansion specifications:
      ----------------------------
 
      Number of CSFs                            84
      Number of determinants                    90
      Number of root(s) required                 2
      CI roots used                              1     2
      weights                                0.500 0.500
      highest root included in the CI            2
      Root passed to geometry opt.               2
--
 
++    Final optimization conditions:
      ------------------------------
 
      Average CI energy                            -398.11130035
      RASSCF energy for state  2                   -398.11018974
      Super-CI energy                                -0.00000000
      RASSCF energy change                            0.00000000
      Max change in MO coefficients               0.191E-04
      Max non-diagonal density matrix element     0.183E-04
      Maximum BLB matrix element                 -0.801E-06
      (orbital pair   7,  21 in symmetry   1)
      Norm of electronic gradient            0.415E-01
--
 
 
      Final state energy(ies):
      ------------------------
 
::    RASSCF root number  1 Total energy:   -398.11241095
::    RASSCF root number  2 Total energy:   -398.11018974
      Von Neumann Entropy (Root   1) =  2.02911
 

      Mulliken population analysis for root number:  1
      -----------------------------------------------
 
 
++    Molecular charges:
      ------------------
 
      Mulliken charges per centre
      ---------------------------
 
                S1      H2      H3    
      Total   15.2808  0.8596  0.8596
 
      N-E      0.7192  0.1404  0.1404
 
      Total electronic charge=   17.000000
 
      Total            charge=    1.000000
--
 
 

      Expectation values of various properties for root number:  1
      -----------------------------------------------------------
 
 
++    Molecular properties:
      ---------------------
 
      Charge (e):
                      =    1.0000
      Dipole Moment (Debye):
      Origin of the operator (Ang)=    0.0000    0.0000    0.0000
                   X=  5.7249E-13               Y= -1.5737E-11               Z=  1.9149E+00           Total=  1.9149E+00
      Center of Charge (Ang)
                     X=    0.00000000               Y=   -0.00000000               Z=    0.39867273
      Quadrupole Moment (Debye*Ang):
      Origin of the operator (Ang)=    0.0000    0.0000    0.0709
                  XX= -1.1451E+01              XY=  1.1600E-13              XZ=  3.9521E-14              YY= -1.0513E+01
                  YZ= -1.7513E-11              ZZ= -1.0984E+01
      In traceless form (Debye*Ang)
                  XX= -7.0265E-01              XY=  1.7400E-13              XZ=  5.9282E-14              YY=  7.0420E-01
                  YZ= -2.6269E-11              ZZ= -1.5537E-03
--
 

      Mulliken spin population analysis for root number:  1
      ---------------------------------------------------
 
 
++    Molecular charges:
      ------------------
 
      Mulliken spin population per centre
      ---------------------------
 
                S1      H2      H3    
      Total    2.0713  0.4643  0.4643
 
      Total electronic spin=    3.000000
--
 
 
      Von Neumann Entropy (Root   2) =  1.99060
 

      Mulliken population analysis for root number:  2
      -----------------------------------------------
 
 
++    Molecular charges:
      ------------------
 
      Mulliken charges per centre
      ---------------------------
 
                S1      H2      H3    
      Total   15.2488  0.8756  0.8756
 
      N-E      0.7512  0.1244  0.1244
 
      Total electronic charge=   17.000000
 
      Total            charge=    1.000000
--
 
 

      Expectation values of various properties for root number:  2
      -----------------------------------------------------------
 
 
++    Molecular properties:
      ---------------------
 
      Charge (e):
                      =    1.0000
      Dipole Moment (Debye):
      Origin of the operator (Ang)=    0.0000    0.0000    0.0000
                   X=  6.3113E-13               Y=  1.8316E-11               Z=  1.0405E+00           Total=  1.0405E+00
      Center of Charge (Ang)
                     X=    0.00000000               Y=    0.00000000               Z=    0.21663436
      Quadrupole Moment (Debye*Ang):
      Origin of the operator (Ang)=    0.0000    0.0000    0.0709
                  XX= -1.1369E+01              XY= -1.0770E-13              XZ=  1.3471E-13              YY= -1.1695E+01
                  YZ=  1.6758E-11              ZZ= -9.9550E+00
      In traceless form (Debye*Ang)
                  XX= -5.4390E-01              XY= -1.6155E-13              XZ=  2.0206E-13              YY= -1.0327E+00
                  YZ=  2.5137E-11              ZZ=  1.5766E+00
--
 

      Mulliken spin population analysis for root number:  2
      ---------------------------------------------------
 
 
++    Molecular charges:
      ------------------
 
      Mulliken spin population per centre
      ---------------------------
 
                S1      H2      H3    
      Total    2.2205  0.3898  0.3898
 
      Total electronic spin=    3.000000
--
 
 
 
      Input file to MOLDEN was generated!
 
 
      Input file to MOLDEN was generated!
 
 
      Input file to MOLDEN was generated!
 
      Average orbitals are written to the RASORB file
      Natural orbitals for root   1 are written to the RASORB.1 file
      Natural orbitals for root   2 are written to the RASORB.2 file
      Spin density orbitals for root   1 are written to the SPDORB.1 file
      Spin density orbitals for root   2 are written to the SPDORB.2 file
 
--- Stop Module: rasscf at Thu Mar 21 15:18:32 2024 /rc=_RC_ALL_IS_WELL_ ---
--- Module rasscf spent 1 second ---

>>> COPY MOLCAS.rasscf.molden MOLCAS.4.molden

>>> COPY MOLCAS.JobIph MOLCAS.4.JobIph

>>> COPY MOLCAS.1.JobIph JOB001

*** symbolic link created: INPORB -> MOLCAS.RasOrb
--- Start Module: rassi at Thu Mar 21 15:18:32 2024 ---
 
()()()()()()()()()()()()()()()()()()()()()()()()()()()()()()()()()()()()()()()()()()()()()()()()()()

                                               &RASSI

                                   only a single process is used
                       available to each process: 10 GB of memory, 1 thread?
                                            pid: 1527034
()()()()()()()()()()()()()()()()()()()()()()()()()()()()()()()()()()()()()()()()()()()()()()()()()()
 
 
      ********************************************************************************
      *                                                                              *
      *                             General data section                             *
      *                                                                              *
      ********************************************************************************
 
   Specific data for JOBIPH file 
 JOB001                                                                         
                                                  
   -------------------------------------
 
   Header from SEWARD:
                                                                               
[...]
    17  1.5 -1.5    4  0.5  0.5         0.000         0.000         0.000
    17  1.5 -1.5    5  0.5 -0.5        -0.000        -0.000         0.000
    17  1.5 -1.5    6  0.5  0.5         0.000         0.000         0.000
    17  1.5 -1.5    7  1.0 -1.0         0.000         0.000         0.000
    17  1.5 -1.5    8  1.0  0.0         0.000         0.000         0.000
    17  1.5 -1.5    9  1.0  1.0         0.000         0.000         0.000
    17  1.5 -1.5   10  1.0 -1.0         0.000         0.000         0.000
    17  1.5 -1.5   11  1.0  0.0         0.000         0.000         0.000
    17  1.5 -1.5   12  1.0  1.0         0.000         0.000         0.000
    17  1.5 -1.5   13  1.5 -1.5         0.000         0.000         0.000
    17  1.5 -1.5   14  1.5 -0.5        -0.000       -46.087        46.087
    17  1.5 -1.5   15  1.5  0.5         0.000         0.000         0.000
    17  1.5 -1.5   16  1.5  1.5         0.000         0.000         0.000
    17  1.5 -1.5   17  1.5 -1.5         0.000         0.000         0.000
    18  1.5 -0.5    1  0.0  0.0         0.000         0.000         0.000
    18  1.5 -0.5    2  0.0  0.0         0.000         0.000         0.000
    18  1.5 -0.5    3  0.5 -0.5         0.000         0.000         0.000
    18  1.5 -0.5    4  0.5  0.5         0.000        26.277        26.277
    18  1.5 -0.5    5  0.5 -0.5         0.000       155.748       155.748
    18  1.5 -0.5    6  0.5  0.5        -0.000        -0.000         0.000
    18  1.5 -0.5    7  1.0 -1.0         0.000         0.000         0.000
    18  1.5 -0.5    8  1.0  0.0         0.000         0.000         0.000
    18  1.5 -0.5    9  1.0  1.0         0.000         0.000         0.000
    18  1.5 -0.5   10  1.0 -1.0         0.000         0.000         0.000
    18  1.5 -0.5   11  1.0  0.0         0.000         0.000         0.000
    18  1.5 -0.5   12  1.0  1.0         0.000         0.000         0.000
    18  1.5 -0.5   13  1.5 -1.5         0.000       -46.087        46.087
    18  1.5 -0.5   14  1.5 -0.5         0.000         0.000         0.000
    18  1.5 -0.5   15  1.5  0.5        -0.000       -53.216        53.216
    18  1.5 -0.5   16  1.5  1.5         0.000         0.000         0.000
    18  1.5 -0.5   17  1.5 -1.5         0.000         0.000         0.000
    18  1.5 -0.5   18  1.5 -0.5         0.000         0.000         0.000
    19  1.5  0.5    1  0.0  0.0         0.000         0.000         0.000
    19  1.5  0.5    2  0.0  0.0         0.000         0.000         0.000
    19  1.5  0.5    3  0.5 -0.5         0.000       -26.277        26.277
    19  1.5  0.5    4  0.5  0.5         0.000         0.000         0.000
    19  1.5  0.5    5  0.5 -0.5        -0.000         0.000         0.000
    19  1.5  0.5    6  0.5  0.5         0.000       155.748       155.748
    19  1.5  0.5    7  1.0 -1.0         0.000         0.000         0.000
    19  1.5  0.5    8  1.0  0.0         0.000         0.000         0.000
    19  1.5  0.5    9  1.0  1.0         0.000         0.000         0.000
    19  1.5  0.5   10  1.0 -1.0         0.000         0.000         0.000
    19  1.5  0.5   11  1.0  0.0         0.000         0.000         0.000
    19  1.5  0.5   12  1.0  1.0         0.000         0.000         0.000
    19  1.5  0.5   13  1.5 -1.5         0.000         0.000         0.000
    19  1.5  0.5   14  1.5 -0.5         0.000       -53.216        53.216
    19  1.5  0.5   15  1.5  0.5         0.000        -0.000         0.000
    19  1.5  0.5   16  1.5  1.5        -0.000       -46.087        46.087
    19  1.5  0.5   17  1.5 -1.5         0.000         0.000         0.000
    19  1.5  0.5   18  1.5 -0.5         0.000         0.000         0.000
    19  1.5  0.5   19  1.5  0.5         0.000        -0.000         0.000
    20  1.5  1.5    1  0.0  0.0         0.000         0.000         0.000
    20  1.5  1.5    2  0.0  0.0         0.000         0.000         0.000
    20  1.5  1.5    3  0.5 -0.5         0.000         0.000         0.000
    20  1.5  1.5    4  0.5  0.5         0.000       -45.512        45.512
    20  1.5  1.5    5  0.5 -0.5         0.000         0.000         0.000
    20  1.5  1.5    6  0.5  0.5        -0.000         0.000         0.000
    20  1.5  1.5    7  1.0 -1.0         0.000         0.000         0.000
    20  1.5  1.5    8  1.0  0.0         0.000         0.000         0.000
    20  1.5  1.5    9  1.0  1.0         0.000         0.000         0.000
    20  1.5  1.5   10  1.0 -1.0         0.000         0.000         0.000
    20  1.5  1.5   11  1.0  0.0         0.000         0.000         0.000
    20  1.5  1.5   12  1.0  1.0         0.000         0.000         0.000
    20  1.5  1.5   13  1.5 -1.5         0.000         0.000         0.000
    20  1.5  1.5   14  1.5 -0.5         0.000         0.000         0.000
    20  1.5  1.5   15  1.5  0.5         0.000       -46.087        46.087
    20  1.5  1.5   16  1.5  1.5         0.000        -0.000         0.000
    20  1.5  1.5   17  1.5 -1.5         0.000         0.000         0.000
    20  1.5  1.5   18  1.5 -0.5         0.000         0.000         0.000
    20  1.5  1.5   19  1.5  0.5         0.000         0.000         0.000
    20  1.5  1.5   20  1.5  1.5         0.000        -0.000         0.000
 ----------------------------------------------------------------------
 
       Total energies including SO-coupling:
::    SO-RASSI State    1     Total energy:    -398.69154562793659
::    SO-RASSI State    2     Total energy:    -398.52836336295371
::    SO-RASSI State    3     Total energy:    -398.52835901946389
::    SO-RASSI State    4     Total energy:    -398.52835633839339
::    SO-RASSI State    5     Total energy:    -398.50853550067410
::    SO-RASSI State    6     Total energy:    -398.50802807365932
::    SO-RASSI State    7     Total energy:    -398.50802509086151
::    SO-RASSI State    8     Total energy:    -398.50769924253916
::    SO-RASSI State    9     Total energy:    -398.37040282917542
::    SO-RASSI State   10     Total energy:    -398.37040282917542
::    SO-RASSI State   11     Total energy:    -398.23939609232025
::    SO-RASSI State   12     Total energy:    -398.23939609232025
::    SO-RASSI State   13     Total energy:    -398.11246756492039
::    SO-RASSI State   14     Total energy:    -398.11246756492039
::    SO-RASSI State   15     Total energy:    -398.11241718550309
::    SO-RASSI State   16     Total energy:    -398.11241718550309
::    SO-RASSI State   17     Total energy:    -398.11018205237565
::    SO-RASSI State   18     Total energy:    -398.11018205237565
::    SO-RASSI State   19     Total energy:    -398.11012928384901
::    SO-RASSI State   20     Total energy:    -398.11012928384901
 
 
   Eigenvalues of complex Hamiltonian:
   -----------------------------------
  (Shifted by EMIN (a.u.) =       -398.6915383016)
 
 SO State       Relative EMIN(au)   Rel lowest level(eV)    D:o, cm**(-1)
 
     1            -0.0000073263        0.0000000000              0.0000
     2             0.1631749387        4.4404156409          35814.3675
     3             0.1631792822        4.4405338333          35815.3207
     4             0.1631819633        4.4406067890          35815.9092
     5             0.1830028010        4.9799592599          40166.0802
     6             0.1835102280        4.9937670524          40277.4476
     7             0.1835132108        4.9938482184          40278.1022
     8             0.1838390591        5.0027150030          40349.6177
     9             0.3211354725        8.7387407372          70482.6974
    10             0.3211354725        8.7387407372          70482.6974
    11             0.4521422093       12.3036156546          99235.3527
    12             0.4521422093       12.3036156546          99235.3527
    13             0.5790707367       15.7575168393         127092.9444
    14             0.5790707367       15.7575168393         127092.9444
    15             0.5791211161       15.7588877331         127104.0014
    16             0.5791211161       15.7588877331         127104.0014
    17             0.5813562493       15.8197088039         127594.5564
    18             0.5813562493       15.8197088039         127594.5564
    19             0.5814090178       15.8211447087         127606.1378
    20             0.5814090178       15.8211447087         127606.1378
 
 
 Weights of the five most important spin-orbit-free states for each spin-orbit s
 tate.
 
 SO State  Total energy (au)           Spin-free states, spin, and weights
 -------------------------------------------------------------------------------
 ------------------------
    1        -0.000007       1 0.0  1.0000    5 1.0  0.0000    6 1.0  0.0000    2 0.0  0.0000    8 1.5  0.0000
    2         0.163175       5 1.0  0.9997    6 1.0  0.0003    8 1.5  0.0000    7 1.5  0.0000    4 0.5  0.0000
    3         0.163179       5 1.0  0.9996    6 1.0  0.0003    1 0.0  0.0000    2 0.0  0.0000    8 1.5  0.0000
    4         0.163182       5 1.0  1.0000    6 1.0  0.0000    8 1.5  0.0000    7 1.5  0.0000    4 0.5  0.0000
    5         0.183003       2 0.0  0.5984    6 1.0  0.4016    5 1.0  0.0000    1 0.0  0.0000    8 1.5  0.0000
    6         0.183510       6 1.0  0.9997    5 1.0  0.0003    8 1.5  0.0000    7 1.5  0.0000    4 0.5  0.0000
    7         0.183513       6 1.0  0.9996    5 1.0  0.0003    1 0.0  0.0000    2 0.0  0.0000    8 1.5  0.0000
    8         0.183839       6 1.0  0.5984    2 0.0  0.4016    1 0.0  0.0000    5 1.0  0.0000    8 1.5  0.0000
    9         0.321135       3 0.5  1.0000    4 0.5  0.0000    8 1.5  0.0000    7 1.5  0.0000    6 1.0  0.0000
   10         0.321135       3 0.5  1.0000    4 0.5  0.0000    8 1.5  0.0000    7 1.5  0.0000    6 1.0  0.0000
   11         0.452142       4 0.5  0.9999    8 1.5  0.0000    3 0.5  0.0000    7 1.5  0.0000    6 1.0  0.0000
   12         0.452142       4 0.5  0.9999    8 1.5  0.0000    3 0.5  0.0000    7 1.5  0.0000    6 1.0  0.0000
   13         0.579071       7 1.5  0.9754    8 1.5  0.0246    4 0.5  0.0000    3 0.5  0.0000    6 1.0  0.0000
   14         0.579071       7 1.5  0.9754    8 1.5  0.0246    4 0.5  0.0000    3 0.5  0.0000    6 1.0  0.0000
   15         0.579121       7 1.5  0.9971    8 1.5  0.0029    4 0.5  0.0000    3 0.5  0.0000    6 1.0  0.0000
   16         0.579121       7 1.5  0.9971    8 1.5  0.0029    4 0.5  0.0000    3 0.5  0.0000    6 1.0  0.0000
   17         0.581356       8 1.5  0.9970    7 1.5  0.0029    4 0.5  0.0000    3 0.5  0.0000    6 1.0  0.0000
   18         0.581356       8 1.5  0.9970    7 1.5  0.0029    4 0.5  0.0000    3 0.5  0.0000    6 1.0  0.0000
   19         0.581409       8 1.5  0.9754    7 1.5  0.0246    4 0.5  0.0000    3 0.5  0.0000    6 1.0  0.0000
   20         0.581409       8 1.5  0.9754    7 1.5  0.0246    4 0.5  0.0000    3 0.5  0.0000    6 1.0  0.0000
 -------------------------------------------------------------------------------
 ------------------------
 
 
      ****************************************************************************************************
      *                                                                                                  *
      *                                    Special properties section                                    *
      *                                                                                                  *
      ****************************************************************************************************
 
 
++ Dipole transition strengths (SO states):
   ----------------------------------------
        for osc. strength at least   1.00000000E-05
 
      From   To        Osc. strength     Einstein coefficients Ax, Ay, Az (sec-1)    Total A (sec-1)
     -----------------------------------------------------------------------------------------------
         2    7       5.39291020E-03  4.02436170E-23  7.16740885E+04  2.47442493E-13  7.16740885E+04
         3    6       5.39091169E-03  4.01997262E-23  7.15959187E+04  2.47172626E-13  7.15959187E+04
         4    5       2.11081687E-03  1.49602992E-23  2.66443697E+04  9.19851151E-14  2.66443697E+04
         4    8       3.27766488E-03  2.52318323E-23  4.49380229E+04  1.55140814E-13  4.49380229E+04
         5    8       2.26112305E-05  4.96372960E-24  1.05423590E-16  5.08060923E-01  5.08060923E-01
         9   11       8.69582923E-03  4.79522671E+06  1.41935946E-05  1.07621608E-18  4.79522671E+06
        10   12       8.69582923E-03  4.79522671E+06  1.41935946E-05  1.07401944E-18  4.79522671E+06
        13   19       2.34257095E-04  2.26366554E-13  4.11525798E+01  2.29368028E-21  4.11525798E+01
        14   20       2.34257095E-04  2.26366562E-13  4.11525798E+01  2.29368119E-21  4.11525798E+01
        15   17       2.23927743E-04  4.99288598E-11  3.59439314E+01  1.97802496E-21  3.59439314E+01
        16   18       2.23927743E-04  4.99288596E-11  3.59439314E+01  1.97802637E-21  3.59439314E+01
     -----------------------------------------------------------------------------------------------
--
 
++ Velocity transition strengths (SO states):
   ------------------------------------------
        for osc. strength at least   1.00000000E-05
 
      From   To        Osc. strength     Einstein coefficients Ax, Ay, Az (sec-1)    Total A (sec-1)
     -----------------------------------------------------------------------------------------------
         2    3       2.82126812E-02  1.73750827E-25  1.71014474E-02  1.94324362E-19  1.71014474E-02
         2    7       4.40042989E-03  5.94193790E-19  5.84835998E+04  6.64551249E-13  5.84835998E+04
         3    6       4.40197679E-03  5.93974511E-19  5.84620173E+04  6.64306006E-13  5.84620173E+04
         4    5       1.81593989E-03  2.32889751E-19  2.29222036E+04  2.60465824E-13  2.29222036E+04
         4    8       2.59609717E-03  3.61629931E-19  3.55934723E+04  4.04449906E-13  3.55934723E+04
         6    7       4.11293623E-02  1.19455045E-25  1.17573781E-02  1.33599510E-19  1.17573781E-02
         9   11       1.93171465E-02  1.06522443E+07  2.67269943E-06  6.17381798E-18  1.06522443E+07
        10   12       1.93171465E-02  1.06522443E+07  2.67269943E-06  6.17381798E-18  1.06522443E+07
        13   15       2.48237542E-04  7.30683148E-11  2.02434544E-02  3.20745988E-26  2.02434545E-02
        13   18       2.31535319E-05  1.68897269E-06  3.88593170E+00  6.15703809E-24  3.88593339E+00
        13   19       1.33256839E-01  8.90260715E-15  2.34095906E+04  3.70911610E-20  2.34095906E+04
        14   16       2.48237542E-04  7.30683145E-11  2.02434544E-02  3.20745989E-26  2.02434545E-02
        14   17       2.31535319E-05  1.68897269E-06  3.88593170E+00  6.15703810E-24  3.88593339E+00
        14   20       1.33256839E-01  8.90248379E-15  2.34095906E+04  3.70911610E-20  2.34095906E+04
        15   17       1.52391414E-01  5.11996841E-07  2.44612233E+04  3.87574130E-20  2.44612233E+04
        15   20       3.04798287E-05  9.12607731E-09  5.12623025E+00  8.12221942E-24  5.12623026E+00
        16   18       1.52391414E-01  5.11996840E-07  2.44612233E+04  3.87574130E-20  2.44612233E+04
        16   19       3.04798287E-05  9.12607722E-09  5.12623025E+00  8.12221942E-24  5.12623026E+00
        17   19       8.99514809E-04  6.90486379E-08  8.04764417E-02  1.27510371E-25  8.04765108E-02
        18   20       8.99514809E-04  6.90486377E-08  8.04764417E-02  1.27510371E-25  8.04765108E-02
     -----------------------------------------------------------------------------------------------
--
 
++ Length and velocity gauge comparison (SO states):
 
 --------------------------------------------------
 A comparison between the dipole oscillator strengths in 
 length and velocity gauge will be performed
 
     All dipole oscillator differences above the tolerance of   1.00000000E-01  will be printed 
 
 Due to basis set deficiency these oscillator may be problematic 
 
 The tolerance is defined as ABS(1-O_l/O_v) 
 O_l : dipole oscillator strength in length gauge
 O_p : dipole oscillator strength in velocity gauge
 --------------------------------------------------
 
  Problematic transitions have been found
 
      From   To       Difference (%) Osc. st. (len.) Osc. st. (vel.)
     ---------------------------------------------------------------
         2    3      --------------- below threshold  2.82126812E-02
         2    7            22.554167  5.39291020E-03  4.40042989E-03
         3    6            22.465700  5.39091169E-03  4.40197679E-03
         4    5            16.238256  2.11081687E-03  1.81593989E-03
         4    8            26.253552  3.27766488E-03  2.59609717E-03
         5    8      ---------------  2.26112305E-05 below threshold
         6    7      --------------- below threshold  4.11293623E-02
         9   11            54.983883  8.69582923E-03  1.93171465E-02
        10   12            54.983883  8.69582923E-03  1.93171465E-02
        13   15      --------------- below threshold  2.48237542E-04
        13   18      --------------- below threshold  2.31535319E-05
        13   19            99.824206  2.34257095E-04  1.33256839E-01
        14   16      --------------- below threshold  2.48237542E-04
        14   17      --------------- below threshold  2.31535319E-05
        14   20            99.824206  2.34257095E-04  1.33256839E-01
        15   17            99.853058  2.23927743E-04  1.52391414E-01
        15   20      --------------- below threshold  3.04798287E-05
        16   18            99.853058  2.23927743E-04  1.52391414E-01
        16   19      --------------- below threshold  3.04798287E-05
        17   19      --------------- below threshold  8.99514809E-04
        18   20      --------------- below threshold  8.99514809E-04
     ---------------------------------------------------------------
 
 Number of problematic transitions =                     21
 
--
 
 Electric-dipole - electric-octupole not included
++ I/O STATISTICS
 
  I. General I/O information
  - - - - - - - - - - - - - - - - - - - - - - - - - - - - - - - - - - - - - - - - - - -
  Unit  Name          Flsize      Write/Read            MBytes           Write/Read
                      (MBytes)       Calls              In/Out           Time, sec.
  - - - - - - - - - - - - - - - - - - - - - - - - - - - - - - - - - - - - - - - - - - -
   1  ANNI              0.00 .       0/       0 .      0.0/      0.0 .       0/       0
   2  RUNFILE           0.26 .     322/   13002 .      2.3/     94.2 .       0/       0
   3  ONEINT            1.46 .       0/    1806 .      0.0/   1637.3 .       0/       0
   4  JOB001            1.22 .       0/      57 .      0.0/      1.1 .       0/       0
   5  JOB002            1.22 .       0/      57 .      0.0/      1.1 .       0/       0
   6  JOB003            1.22 .       0/      57 .      0.0/      1.1 .       0/       0
   7  JOB004            1.22 .       0/      57 .      0.0/      1.1 .       0/       0
  - - - - - - - - - - - - - - - - - - - - - - - - - - - - - - - - - - - - - - - - - - -
   *  TOTAL             6.60 .     322/   15036 .      2.3/   1735.8 .       0/       0
  - - - - - - - - - - - - - - - - - - - - - - - - - - - - - - - - - - - - - - - - - - -
 
  II. I/O Access Patterns
  - - - - - - - - - - - - - - - - - - - -
  Unit  Name               % of random
                         Write/Read calls
  - - - - - - - - - - - - - - - - - - - -
   1  ANNI                 0.0/   0.0
   2  RUNFILE             28.6/  10.9
   3  ONEINT               0.0/  97.3
   4  JOB001               0.0/  71.9
   5  JOB002               0.0/  71.9
   6  JOB003               0.0/  71.9
   7  JOB004               0.0/  71.9
  - - - - - - - - - - - - - - - - - - - -
--
--- Stop Module: rassi at Thu Mar 21 15:18:37 2024 /rc=_RC_ALL_IS_WELL_ ---
--- Module rassi spent 3 seconds ---

.##################.
.# Happy landing! #.
.##################.

    Timing: Wall=15.57 User=13.66 System=1.75
