   This run of MOLCAS is using the pymolcas driver

                             OPE
                             OPE          NMOL  CASOP  ENMOLC A   SO
                 OPE        NMOLC        AS  OP EN  MO LC     AS  OP
                OPENM       OL CA        SO  PE NM  OL CA     SOP EN
                OP EN      MO   LC       AS  OP ENMOL  CASO   PENMOL
                OP  EN     MO   LC       AS  OP EN     MO     LC ASO
               OP   E  NMOL  C  AS       OP  EN MO     LC     AS  OP
               OP  E   NMO   LC AS        OPEN  MO     LCASOP EN   M
               O  PEN   MO  LCA  SO
            OPE   NMO   L   CAS    OP
        OPENMOL  CASOP     ENMOL   CASOPE
     OPENMOLCA   SOPENMOLCASOPEN   MOLCASOPE
    OPENMOLCAS   OP           EN   MOL    CAS
    OPENMOLCAS       OP  ENM        O     LCA
    OPENMOLCAS    OPEN  MOLCASO     P  E  NMO
    OPENMOLCAS     OP               E  N  MOL
    OPENMOLCA   SO           PENM   O  L  CAS    OPEN    MO    LCAS
    OPENMOLCA   SOP           ENM   O  L  CAS   OP  EN  MOLC  AS   O
    OPENMOLCA   SOPE           NM      O  LCA   S      OP  EN MO
    OPENMOLC                AS         O  PEN   M      OL  CA  SOPE
    OPENMO        LCASOPE  NMOL        C  ASO   P      ENMOLC     AS
    OPE     NMO      LCA  SO     P     E   NM   OL  CA SO  PE N   MO
          OPENMOLCA            SOPE   NMO        LCAS  O    P  ENMO
     OPENMOLCASOPENMOLCASOPENMOLCASOPENMOLCA
        OPENMOLCASOPENMOLCASOPENMOLCASOPE
            OPENMOLCASOPENMOLCASOPENM
               OPENMOLCASOPENMOLCA        version: v23.10
                   OPENMOLCASO
                       OPE                tag:

 OpenMolcas is free software; you can redistribute it and/or modify it
 under the terms of the GNU Lesser General Public License version 2.1.
 OpenMolcas is distributed in the hope that it will be useful, but it
 is provided "as is" and without any express or implied warranties.
 For more details see the full text of the license in the file
 LICENSE or in <http://www.gnu.org/licenses/>.

                 Copyright (C) The OpenMolcas Authors
           For the author list and the recommended citation,
                   consult the file CONTRIBUTORS.md

           *************************************************
           * pymolcas version py2.25                       *
           *   build 2b27fa14244bdc32cb1957e6230cd793      *
           *   (after the EMIL interpreter by V. Veryazov) *
           *************************************************

configuration info
------------------
Host name: manganese.itc.univie.ac.at (Linux)
C Compiler ID: Clang
C flags: -std=gnu99
Fortran Compiler ID: Intel
Fortran flags: -fpp -i8 -heap-arrays
Definitions: _MOLCAS_;_I8_;_LINUX_
Parallel: OFF (GA=OFF)


   ---------------------------------------------------------------------------
  |
  |           Project: MOLCAS
  |    Submitted from: /public/manganese/scratch/tmp/sascha.925337/WORK/master
  |      Scratch area: /public/manganese/scratch/tmp/sascha.925337/WORK/master
  |   Save outputs to: WORKDIR
  |            Molcas: /usr/license/openmolcas/v23.10
  |
  | Scratch area is NOT empty
  |
  |        MOLCASMEM = 10000
  |    MOLCAS_DRIVER = /usr/license/openmolcas/v23.10/pymolcas
  |    MOLCAS_NPROCS = 1
  |    MOLCAS_SOURCE = /usr/license/openmolcas/v23.10
  | MOLCAS_STRUCTURE = 0
  |
   ---------------------------------------------------------------------------

++ ---------   Input file   ---------

&GATEWAY
COORD=MOLCAS.xyz
GROUP=NOSYM
BASIS=cc-pvdz
AMFI
angmom
0 0 0
BASLIB
/user/sascha/development/eci/sharc_main/examples/SHARC_MOLCAS/basisset

RICD
CDTHreshold=0.0001

&SEWARD
GRID INPUT
NORO
NOSC
END OF GRID INPUT

>>> COPY /public/manganese/scratch/tmp/sascha.925337/SAVE/MOLCAS.1.JobIph.0 JOBOLD

&RASSCF
SPIN=1
NACTEL=8 0 0
INACTIVE=5
RAS2=6
ITERATIONS=200,100
CIROOT=6 6 1
ORBLISTING=NOTHING
PRWF=0.1
CMSInter
THRS=0.000000010000 0.000100000000 0.000100000000
JOBIPH
CMSI

>>> COPY MOLCAS.rasscf.molden MOLCAS.1.molden

&MCPDFT
KSDFT=t:pbe
noGrad
MSPDFT
WJOB
CMMI=0
CMSS=Do_Rotate.txt
CMTH=1.0d-10

>>> COPY MOLCAS.JobIph MOLCAS.1.JobIph

>>> COPY /public/manganese/scratch/tmp/sascha.925337/SAVE/MOLCAS.2.JobIph.0 JOBOLD

&RASSCF
SPIN=2
NACTEL=7 0 0
INACTIVE=5
RAS2=6
ITERATIONS=200,100
CIROOT=4 4 1
ORBLISTING=NOTHING
PRWF=0.1
CMSInter
THRS=0.000000010000 0.000100000000 0.000100000000
JOBIPH
CMSI

>>> COPY MOLCAS.rasscf.molden MOLCAS.2.molden

&MCPDFT
KSDFT=t:pbe
noGrad
MSPDFT
WJOB
CMMI=0
CMSS=Do_Rotate.txt
CMTH=1.0d-10

>>> COPY MOLCAS.JobIph MOLCAS.2.JobIph

>>> COPY /public/manganese/scratch/tmp/sascha.925337/SAVE/MOLCAS.3.JobIph.0 JOBOLD

&RASSCF
SPIN=3
NACTEL=8 0 0
INACTIVE=5
RAS2=6
ITERATIONS=200,100
CIROOT=4 4 1
ORBLISTING=NOTHING
PRWF=0.1
CMSInter
THRS=0.000000010000 0.000100000000 0.000100000000
JOBIPH
CMSI

>>> COPY MOLCAS.rasscf.molden MOLCAS.3.molden

&MCPDFT
KSDFT=t:pbe
noGrad
MSPDFT
WJOB
CMMI=0
CMSS=Do_Rotate.txt
CMTH=1.0d-10

>>> COPY MOLCAS.JobIph MOLCAS.3.JobIph

>>> COPY MOLCAS.1.JobIph JOB001

&RASSI
NROFJOBIPHS
1 6
1 2 3 4 5 6
MEIN
EJOB

>>> COPY MOLCAS.rassi.h5 MOLCAS.rassi.1.h5

>>> COPY MOLCAS.2.JobIph JOB001

&RASSI
NROFJOBIPHS
1 2
1 2
MEIN
EJOB

>>> COPY MOLCAS.rassi.h5 MOLCAS.rassi.2.h5

>>> COPY MOLCAS.3.JobIph JOB001

&RASSI
NROFJOBIPHS
1 1
1
MEIN
EJOB

>>> COPY MOLCAS.rassi.h5 MOLCAS.rassi.3.h5

>>> COPY /public/manganese/scratch/tmp/sascha.925337/SAVE/MOLCAS.1.JobIph.0 JOB001

>>> COPY MOLCAS.1.JobIph JOB002

&RASSI
NROFJOBIPHS
2 6 6
1 2 3 4 5 6
1 2 3 4 5 6
MEIN
EJOB
OVERLAPS

>>> COPY MOLCAS.rassi.h5 MOLCAS.rassi.ovlp.1.h5

>>> COPY /public/manganese/scratch/tmp/sascha.925337/SAVE/MOLCAS.2.JobIph.0 JOB001

>>> COPY MOLCAS.2.JobIph JOB002

&RASSI
NROFJOBIPHS
2 2 2
1 2
1 2
MEIN
EJOB
OVERLAPS

>>> COPY MOLCAS.rassi.h5 MOLCAS.rassi.ovlp.2.h5

>>> COPY /public/manganese/scratch/tmp/sascha.925337/SAVE/MOLCAS.3.JobIph.0 JOB001

>>> COPY MOLCAS.3.JobIph JOB002

&RASSI
NROFJOBIPHS
2 1 1
1
1
MEIN
EJOB
OVERLAPS

>>> COPY MOLCAS.rassi.h5 MOLCAS.rassi.ovlp.3.h5

>>> COPY MOLCAS.1.JobIph JOB001

>>> COPY MOLCAS.2.JobIph JOB002

>>> COPY MOLCAS.3.JobIph JOB003

&RASSI
NROFJOBIPHS
3 6 2 1
1 2 3 4 5 6
1 2
1
MEIN
EJOB
SPINORBIT
SOCOUPLING=0.0d0
EJOB

-- ----------------------------------

--- Start Module: gateway at Fri Mar 22 14:30:48 2024 ---
 
()()()()()()()()()()()()()()()()()()()()()()()()()()()()()()()()()()()()()()()()()()()()()()()()()()

                                              &GATEWAY

                                   only a single process is used
                       available to each process: 10 GB of memory, 1 thread?
                                            pid: 1939542
()()()()()()()()()()()()()()()()()()()()()()()()()()()()()()()()()()()()()()()()()()()()()()()()()()
 
 
 
 Basis Set     1 Label: S.CC-PVDZ
 Basis set is read from library:/user/sascha/development/eci/sharc_main/examples/SHARC_MOLCAS/basisset 
 
 
 Basis Set     2 Label: H.CC-PVDZ
 Basis set is read from library:/user/sascha/development/eci/sharc_main/examples/SHARC_MOLCAS/basisset 
 
++    Symmetry information:
      ---------------------
 
                    Character Table for C1 
 
                             E  
                    a        1  x, y, xy, Rz, z, xz, Ry, yz, Rx, I
--
 
 
++    Basis set information:
      ----------------------
 
 
      Basis set label: S.CC-PVDZ.........
 
      Electronic valence basis set:
      ------------------
      Associated Effective Charge  16.000000 au
      Associated Actual Charge     16.000000 au
      Nuclear Model: Point charge
 
      Shell  nPrim  nBasis  Cartesian Spherical Contaminant
         s      12       4        X                  
         p       8       3        X                  
         d       1       1                 X         
 
 
      Basis set label: H.CC-PVDZ.........
 
      Electronic valence basis set:
      ------------------
      Associated Effective Charge   1.000000 au
      Associated Actual Charge      1.000000 au
      Nuclear Model: Point charge
 
      Shell  nPrim  nBasis  Cartesian Spherical Contaminant
         s       4       2        X                  
         p       1       1        X                  
--
 
 
++    Molecular structure info:
      -------------------------
 
                    ************************************************ 
                    **** Cartesian Coordinates / Bohr, Angstrom **** 
                    ************************************************ 
 
     Center  Label                x              y              z                     x              y              z
        1      S1               0.000000       0.000000       0.001589              0.000000       0.000000       0.000841
        2      H2               0.000000       1.842103       2.235421              0.000000       0.974799       1.182934
        3      H3              -0.018897      -1.842103       2.235421             -0.010000      -0.974799       1.182934
 
                    *************************************** 
                    *    InterNuclear Distances / Bohr    * 
                    *************************************** 
 
               1 S1            2 H2            3 H3    
    1 S1       0.000000
    2 H2       2.895401        0.000000
    3 H3       2.895463        3.684255        0.000000
 
                    ******************************************* 
                    *    InterNuclear Distances / Angstrom    * 
                    ******************************************* 
 
               1 S1            2 H2            3 H3    
    1 S1       0.000000
    2 H2       1.532180        0.000000
    3 H3       1.532213        1.949624        0.000000
 
                    ************************************** 
                    *    Valence Bond Angles / Degree    * 
                    ************************************** 
                          Atom centers                 Phi
                      2 H2       1 S1       3 H3        79.02
--
 
 
            Nuclear Potential Energy             11.32331568 au
 
--- Stop Module: gateway at Fri Mar 22 14:30:48 2024 /rc=_RC_ALL_IS_WELL_ ---

--- Start Module: seward at Fri Mar 22 14:30:48 2024 ---
 
()()()()()()()()()()()()()()()()()()()()()()()()()()()()()()()()()()()()()()()()()()()()()()()()()()

                                              &SEWARD

                                   only a single process is used
                       available to each process: 10 GB of memory, 1 thread?
                                            pid: 1939546
()()()()()()()()()()()()()()()()()()()()()()()()()()()()()()()()()()()()()()()()()()()()()()()()()()
 
               SEWARD will generate:
                  Multipole Moment integrals up to order  2
                  Kinetic Energy integrals
                  Nuclear Attraction integrals (point charge)
                  One-Electron Hamiltonian integrals
                  Velocity integrals
                  Orbital angular momentum around ( 0.0000  0.0000  0.0000 )
                  Velocity quadrupole around (-0.0006  0.0000  0.1341 )
                  Atomic mean-field integrals
                  RI decomposed two-electron repulsion integrals stored Cholesky style
                   - acCD auxiliary basis
                   - CD Threshold:   0.10E-03
 
                   Integrals are discarded if absolute value <: 0.10E-13
                   Integral cutoff threshold is set to       <: 0.10E-15
 
            Nuclear Potential Energy             11.32331568 au
 
 
      Basis set specifications :
      Symmetry species         a  
      Basis functions           28
 
 
      Input file to MOLDEN was generated!
 
--- Stop Module: seward at Fri Mar 22 14:30:49 2024 /rc=_RC_ALL_IS_WELL_ ---

>>> COPY /public/manganese/scratch/tmp/sascha.925337/SAVE/MOLCAS.1.JobIph.0 JOBOLD

*** symbolic link created: INPORB -> MOLCAS.GssOrb
--- Start Module: rasscf at Fri Mar 22 14:30:49 2024 ---
 
()()()()()()()()()()()()()()()()()()()()()()()()()()()()()()()()()()()()()()()()()()()()()()()()()()

                                              &RASSCF

                                   only a single process is used
                       available to each process: 10 GB of memory, 1 thread?
                                            pid: 1939552
()()()()()()()()()()()()()()()()()()()()()()()()()()()()()()()()()()()()()()()()()()()()()()()()()()
 
 
      Header of the ONEINT file:
      --------------------------
      
      Integrals generated by Gateway/Seward, Fri Mar 22 14:30:49 2024
 
 
      OrdInt status: non-squared
 
 
      Cartesian coordinates in Angstrom:
      -----------------------------------------------------
      No.  Label        X            Y            Z        
      -----------------------------------------------------
       1   S1         0.00000000   0.00000000   0.00084100
       2   H2         0.00000000   0.97479900   1.18293400
       3   H3        -0.01000000  -0.97479900   1.18293400
      -----------------------------------------------------
      Nuclear repulsion energy =   11.32331568
 
++    Wave function specifications:
      -----------------------------
 
      Number of closed shell electrons          10
      Number of electrons in active shells       8
      Max number of holes in RAS1 space          0
      Max nr of electrons in RAS3 space          0
      Number of inactive orbitals                5
      Number of active orbitals                  6
      Number of secondary orbitals              17
      Spin quantum number                      0.0
      State symmetry                             1
--
 
++    Orbital specifications:
      -----------------------
 
      Symmetry species                           1
                                                 a
      Frozen orbitals                            0
      Inactive orbitals                          5
      Active orbitals                            6
      RAS1 orbitals                              0
      RAS2 orbitals                              6
      RAS3 orbitals                              0
      Secondary orbitals                        17
      Deleted orbitals                           0
      Number of basis functions                 28
--
 
++    CI expansion specifications:
      ----------------------------
 
      Number of CSFs                           105
      Number of determinants                   120
      Number of root(s) required                 6
      Root chosen for geometry opt.              6
      CI roots used                              1     2     3     4     5     6
      weights                                0.167 0.167 0.167 0.167 0.167 0.167
      highest root included in the CI            6
      max. size of the explicit Hamiltonian    105
--
 
++    Optimization specifications:
      ----------------------------
 
      RASSCF algorithm: LK RI/DF
      Maximum number of macro iterations       200
      Maximum number of SX iterations          100
      Threshold for RASSCF energy            0.100E-07
      Threshold for max MO rotation          0.100E-03
      Threshold for max BLB element          0.100E-03
      Level shift parameter                  0.500E+00
      Make Quasi-Newton update
--
 
      The MO-coefficients are taken from the file:
      JOBOLD
      Title:(No title given)                                                        
 
      Total molecular charge    0.00
 
      ************************************************************************************************************************
      *                                                                                                                      *
      *                                            Wave function control section                                             *
      *                                                                                                                      *
      ************************************************************************************************************************
 
 
                                         RASSCF iterations: Energy and convergence statistics
                                         ----------------------------------------------------
 
      Iter CI   SX   CI       RASSCF       Energy    max ROT     max BLB   max BLB  Level Ln srch  Step   QN   Walltime
          iter iter root      energy       change     param      element    value   shift minimum  type update hh:mm:ss
 Nr of preliminary CI iterations:   1
        1   1    2    0  -398.44309036    0.00E+00  -0.28E-06    9  18 1  0.26E-06   0.00   0.00    SX    NO    0:00:00
        2   1    2    0  -398.44309036   -0.29E-11  -0.49E-07    9  18 1  0.90E-07   0.00   0.00    SX    NO    0:00:00
        3   1    1    0  -398.44309036   -0.28E-12   0.00E+00    9  18 1  0.26E-07   0.00   0.00    SX    NO    0:00:00
        4   1    1    0  -398.44309036    0.57E-13   0.00E+00    9  18 1  0.26E-07   0.00   0.00    SX    NO    0:00:00
      Convergence after  4 iterations
        5   1    1    0  -398.44309036   -0.57E-12   0.00E+00    9  18 1  0.26E-07   0.00   0.00    SX    NO    0:00:00
 
 
    CMS INTERMEDIATE-STATE OPTIMIZATION
     START MATRX           XMS INTERMEDIATE STATES
     OPT ALGO                               NEWTON
     Q_a-a THRESHOLD                      1.00E-08
     GRAD  THRESHOLD                      1.00E-10
     MAX CYCLES                                100
     MIN CYCLES                                  5
 =======================================================================
      Cycle       Q_a-a        Difference  # Pos.     Largest    Step
                                           Hessian    Gradient   Scaled
 -----------------------------------------------------------------------
         0     79.15297516     0.00E+000      0     0.0000E+000   1.0
         1     79.17007721     1.71E-002     10     4.3619E-002   1.0
         2     79.18359702     1.35E-002      9     3.0658E-002   1.0
         3     79.17721680    -6.38E-003      7     1.8685E-002   1.0
         4     79.18668879     9.47E-003      8     3.4296E-002   1.0
         5     79.20712757     2.04E-002      8     7.5267E-002   1.0
         6     79.21867423     1.15E-002      7     1.0164E-001   1E-1
         7     79.23088021     1.22E-002      6     7.2158E-002   1E-1
         8     79.25087499     2.00E-002      6     6.5924E-002   1.0
         9     79.25269616     1.82E-003      4     4.0001E-002   1E-3
        10     79.30042732     4.77E-002      4     3.9125E-002   1.0
        11     79.30861572     8.19E-003      3     7.2012E-002   1.0
        12     79.32631355     1.77E-002      3     7.9448E-002   1E-1
        13     79.34858035     2.23E-002      3     6.6452E-002   1E-1
        14     79.35661904     8.04E-003      2     6.7705E-002   1E-1
        15     79.37250554     1.59E-002      2     5.1400E-002   1.0
        16     79.38816962     1.57E-002      2     2.7546E-002   1.0
        17     79.39088363     2.71E-003      0     1.9432E-002   1.0
        18     79.39118553     3.02E-004      0     4.6966E-003   1.0
        19     79.39118608     5.48E-007      0     3.2972E-004   1.0
        20     79.39118608     8.53E-014      0     6.6184E-008   1.0
        21     79.39118608     4.26E-014      0     3.0222E-014   1.0
    CONVERGENCE REACHED
 =======================================================================
 
 =======================================================================
 
           Do_Rotate.txt is found in scratch directory.
           Following properties are for CMS intermediate states.
 
 =======================================================================
 
      ************************************************************************************************************************
                                                      Wave function printout:
                       occupation of active orbitals, and spin coupling of open shells (u,d: Spin up or down)
      ************************************************************************************************************************
 
      Note: transformation to natural orbitals
      has been made, which may change the order of the CSFs.
 
      printout of CI-coefficients larger than  0.10 for root  1
      energy=    -398.486593
      conf/sym  111111     Coeff  Weight
             1  222200  -0.68296 0.46644
             7  22u2d0  -0.57739 0.33338
             9  22u20d   0.10834 0.01174
            17  2u220d  -0.39071 0.15265
 
      printout of CI-coefficients larger than  0.10 for root  2
      energy=    -398.349291
      conf/sym  111111     Coeff  Weight
             7  22u2d0  -0.36954 0.13656
             9  22u20d  -0.51787 0.26819
            15  2u22d0   0.42712 0.18243
            17  2u220d   0.56580 0.32013
            31  220220  -0.11856 0.01406
            37  2ud220   0.10691 0.01143
            40  2ud202  -0.10737 0.01153
            52  202202   0.10112 0.01023
 
      printout of CI-coefficients larger than  0.10 for root  3
      energy=    -398.493394
      conf/sym  111111     Coeff  Weight
             2  222ud0   0.68862 0.47420
             4  222u0d   0.68122 0.46406
            18  2u2dud   0.11681 0.01364
 
      printout of CI-coefficients larger than  0.10 for root  4
      energy=    -398.349286
      conf/sym  111111     Coeff  Weight
             7  22u2d0   0.37153 0.13804
             9  22u20d  -0.51716 0.26745
            15  2u22d0   0.42861 0.18370
            17  2u220d  -0.56402 0.31811
            31  220220  -0.11908 0.01418
            37  2ud220  -0.10670 0.01139
            40  2ud202   0.10738 0.01153
            52  202202   0.10070 0.01014
 
      printout of CI-coefficients larger than  0.10 for root  5
      energy=    -398.486594
      conf/sym  111111     Coeff  Weight
             1  222200   0.68294 0.46641
             7  22u2d0  -0.57709 0.33303
             9  22u20d  -0.11057 0.01222
            17  2u220d  -0.39073 0.15267
 
      printout of CI-coefficients larger than  0.10 for root  6
      energy=    -398.493384
      conf/sym  111111     Coeff  Weight
             2  222ud0  -0.69079 0.47719
             4  222u0d   0.67903 0.46108
            18  2u2dud   0.11683 0.01365
 
      Natural orbitals and occupation numbers for root  1
      sym 1:   1.994480   1.902996   1.781505   1.998636   0.228611   0.093772
 
      Natural orbitals and occupation numbers for root  2
      sym 1:   1.983456   1.049782   1.989406   1.990472   0.033785   0.953099
 
      Natural orbitals and occupation numbers for root  3
      sym 1:   1.998773   1.964352   1.997430   1.000000   1.000951   0.038494
 
      Natural orbitals and occupation numbers for root  4
      sym 1:   1.983455   1.049774   1.989408   1.990473   0.033788   0.953103
 
      Natural orbitals and occupation numbers for root  5
      sym 1:   1.994480   1.903017   1.781461   1.998638   0.228648   0.093756
 
      Natural orbitals and occupation numbers for root  6
      sym 1:   1.998773   1.964348   1.997431   1.000000   1.000951   0.038498
 
      ************************************************************************************************************************
      *                                                                                                                      *
      *                                                    Final results                                                     *
      *                                                                                                                      *
      ************************************************************************************************************************
 
 
++    Wave function specifications:
      -----------------------------
 
      Number of closed shell electrons          10
      Number of electrons in active shells       8
      Max number of holes in RAS1 space          0
      Max nr of electrons in RAS3 space          0
      Number of inactive orbitals                5
      Number of active orbitals                  6
      Number of secondary orbitals              17
      Spin quantum number                      0.0
      State symmetry                             1
--
 
++    Orbital specifications:
      -----------------------
 
      Symmetry species                           1
                                                 a
      Frozen orbitals                            0
      Inactive orbitals                          5
      Active orbitals                            6
      RAS1 orbitals                              0
      RAS2 orbitals                              6
      RAS3 orbitals                              0
      Secondary orbitals                        17
      Deleted orbitals                           0
      Number of basis functions                 28
--
 
++    CI expansion specifications:
      ----------------------------
 
      Number of CSFs                           105
      Number of determinants                   120
      Number of root(s) required                 6
      CI roots used                              1     2     3     4     5     6
      weights                                0.167 0.167 0.167 0.167 0.167 0.167
      highest root included in the CI            6
      Root passed to geometry opt.               6
--
 
++    Final optimization conditions:
      ------------------------------
 
      Average CI energy                            -398.44309036
      RASSCF energy for state  6                   -398.49338407
      Super-CI energy                                 0.00000000
      RASSCF energy change                           -0.00000000
      Max change in MO coefficients               0.000E+00
      Max non-diagonal density matrix element     0.000E+00
      Maximum BLB matrix element                  0.263E-07
      (orbital pair   9,  18 in symmetry   1)
      Norm of electronic gradient            0.792E-01
--
 
 
      Final state energy(ies):
      ------------------------
 
::    RASSCF root number  1 Total energy:   -398.48659271
::    RASSCF root number  2 Total energy:   -398.34929146
::    RASSCF root number  3 Total energy:   -398.49339400
::    RASSCF root number  4 Total energy:   -398.34928558
::    RASSCF root number  5 Total energy:   -398.48659436
::    RASSCF root number  6 Total energy:   -398.49338407
      Von Neumann Entropy (Root   1) =  0.78653
 

      Mulliken population analysis for root number:  1
      -----------------------------------------------
 
 
++    Molecular charges:
      ------------------
 
      Mulliken charges per centre
      ---------------------------
 
                S1      H2      H3    
      Total   16.0691  1.4280  0.5029
 
      N-E     -0.0691 -0.4280  0.4971
 
      Total electronic charge=   18.000000
 
      Total            charge=   -0.000000
--
 
 

      Expectation values of various properties for root number:  1
      -----------------------------------------------------------
 
 
++    Molecular properties:
      ---------------------
 
      Charge (e):
                      =   -0.0000
      Dipole Moment (Debye):
      Origin of the operator (Ang)=    0.0000    0.0000    0.0000
                   X= -2.6932E-02               Y= -4.7743E+00               Z=  5.7779E-01           Total=  4.8092E+00
      Quadrupole Moment (Debye*Ang):
      Origin of the operator (Ang)=   -0.0003    0.0000    0.0709
                  XX= -1.6845E+01              XY=  2.7991E-02              XZ= -3.1574E-02              YY= -1.4506E+01
                  YZ= -3.7812E+00              ZZ= -1.3965E+01
      In traceless form (Debye*Ang)
                  XX= -2.6089E+00              XY=  4.1986E-02              XZ= -4.7361E-02              YY=  8.9911E-01
                  YZ= -5.6718E+00              ZZ=  1.7098E+00
--
 
      Von Neumann Entropy (Root   2) =  1.12349
 

      Mulliken population analysis for root number:  2
      -----------------------------------------------
 
 
++    Molecular charges:
      ------------------
 
      Mulliken charges per centre
      ---------------------------
 
                S1      H2      H3    
      Total   16.0097  0.7190  1.2713
 
      N-E     -0.0097  0.2810 -0.2713
 
      Total electronic charge=   18.000000
 
      Total            charge=   -0.000000
--
 
 

      Expectation values of various properties for root number:  2
      -----------------------------------------------------------
 
 
++    Molecular properties:
      ---------------------
 
      Charge (e):
                      =   -0.0000
      Dipole Moment (Debye):
      Origin of the operator (Ang)=    0.0000    0.0000    0.0000
                   X=  1.1643E-02               Y=  2.1651E+00               Z= -1.2696E-01           Total=  2.1689E+00
      Quadrupole Moment (Debye*Ang):
      Origin of the operator (Ang)=   -0.0003    0.0000    0.0709
                  XX= -1.7130E+01              XY= -1.5678E-02              XZ=  2.7510E-02              YY= -1.5258E+01
                  YZ=  5.9762E+00              ZZ= -1.6387E+01
      In traceless form (Debye*Ang)
                  XX= -1.3076E+00              XY= -2.3517E-02              XZ=  4.1265E-02              YY=  1.5001E+00
                  YZ=  8.9642E+00              ZZ= -1.9251E-01
--
 
      Von Neumann Entropy (Root   3) =  1.13770
 

      Mulliken population analysis for root number:  3
      -----------------------------------------------
 
 
++    Molecular charges:
      ------------------
 
      Mulliken charges per centre
      ---------------------------
 
                S1      H2      H3    
      Total   15.8720  0.9025  1.2255
 
      N-E      0.1280  0.0975 -0.2255
 
      Total electronic charge=   18.000000
 
      Total            charge=   -0.000000
--
 
 

      Expectation values of various properties for root number:  3
      -----------------------------------------------------------
 
 
++    Molecular properties:
      ---------------------
 
      Charge (e):
                      =   -0.0000
      Dipole Moment (Debye):
      Origin of the operator (Ang)=    0.0000    0.0000    0.0000
                   X=  1.0809E-02               Y=  1.6068E+00               Z= -6.0686E-01           Total=  1.7176E+00
      Quadrupole Moment (Debye*Ang):
      Origin of the operator (Ang)=   -0.0003    0.0000    0.0709
                  XX= -1.4234E+01              XY= -3.1141E-02              XZ=  3.5527E-02              YY= -1.6903E+01
                  YZ=  4.1249E+00              ZZ= -1.7631E+01
      In traceless form (Debye*Ang)
                  XX=  3.0332E+00              XY= -4.6712E-02              XZ=  5.3291E-02              YY= -9.7101E-01
                  YZ=  6.1874E+00              ZZ= -2.0622E+00
--
 
      Von Neumann Entropy (Root   4) =  1.12350
 

      Mulliken population analysis for root number:  4
      -----------------------------------------------
 
 
++    Molecular charges:
      ------------------
 
      Mulliken charges per centre
      ---------------------------
 
                S1      H2      H3    
      Total   16.0096  1.2713  0.7190
 
      N-E     -0.0096 -0.2713  0.2810
 
      Total electronic charge=   18.000000
 
      Total            charge=   -0.000000
--
 
 

      Expectation values of various properties for root number:  4
      -----------------------------------------------------------
 
 
++    Molecular properties:
      ---------------------
 
      Charge (e):
                      =   -0.0000
      Dipole Moment (Debye):
      Origin of the operator (Ang)=    0.0000    0.0000    0.0000
                   X= -1.0568E-02               Y= -2.1652E+00               Z= -1.2704E-01           Total=  2.1689E+00
      Quadrupole Moment (Debye*Ang):
      Origin of the operator (Ang)=   -0.0003    0.0000    0.0709
                  XX= -1.7130E+01              XY=  3.4877E-02              XZ= -3.3796E-02              YY= -1.5258E+01
                  YZ= -5.9762E+00              ZZ= -1.6387E+01
      In traceless form (Debye*Ang)
                  XX= -1.3068E+00              XY=  5.2315E-02              XZ= -5.0694E-02              YY=  1.4997E+00
                  YZ= -8.9642E+00              ZZ= -1.9291E-01
--
 
      Von Neumann Entropy (Root   5) =  0.78655
 

      Mulliken population analysis for root number:  5
      -----------------------------------------------
 
 
++    Molecular charges:
      ------------------
 
      Mulliken charges per centre
      ---------------------------
 
                S1      H2      H3    
      Total   16.0690  0.5029  1.4281
 
      N-E     -0.0690  0.4971 -0.4281
 
      Total electronic charge=   18.000000
 
      Total            charge=   -0.000000
--
 
 

      Expectation values of various properties for root number:  5
      -----------------------------------------------------------
 
 
++    Molecular properties:
      ---------------------
 
      Charge (e):
                      =   -0.0000
      Dipole Moment (Debye):
      Origin of the operator (Ang)=    0.0000    0.0000    0.0000
                   X=  2.2048E-02               Y=  4.7744E+00               Z=  5.7704E-01           Total=  4.8092E+00
      Quadrupole Moment (Debye*Ang):
      Origin of the operator (Ang)=   -0.0003    0.0000    0.0709
                  XX= -1.6845E+01              XY= -4.0003E-03              XZ=  7.2198E-03              YY= -1.4506E+01
                  YZ=  3.7815E+00              ZZ= -1.3966E+01
      In traceless form (Debye*Ang)
                  XX= -2.6087E+00              XY= -6.0005E-03              XZ=  1.0830E-02              YY=  8.9913E-01
                  YZ=  5.6723E+00              ZZ=  1.7096E+00
--
 
      Von Neumann Entropy (Root   6) =  1.13771
 

      Mulliken population analysis for root number:  6
      -----------------------------------------------
 
 
++    Molecular charges:
      ------------------
 
      Mulliken charges per centre
      ---------------------------
 
                S1      H2      H3    
      Total   15.8719  1.2255  0.9025
 
      N-E      0.1281 -0.2255  0.0975
 
      Total electronic charge=   18.000000
 
      Total            charge=   -0.000000
--
 
 

      Expectation values of various properties for root number:  6
      -----------------------------------------------------------
 
 
++    Molecular properties:
      ---------------------
 
      Charge (e):
                      =   -0.0000
      Dipole Moment (Debye):
      Origin of the operator (Ang)=    0.0000    0.0000    0.0000
                   X= -5.6745E-03               Y= -1.6068E+00               Z= -6.0694E-01           Total=  1.7176E+00
      Quadrupole Moment (Debye*Ang):
      Origin of the operator (Ang)=   -0.0003    0.0000    0.0709
                  XX= -1.4234E+01              XY=  3.7538E-03              XZ= -6.7885E-03              YY= -1.6903E+01
                  YZ= -4.1251E+00              ZZ= -1.7631E+01
      In traceless form (Debye*Ang)
                  XX=  3.0337E+00              XY=  5.6307E-03              XZ= -1.0183E-02              YY= -9.7120E-01
                  YZ= -6.1877E+00              ZZ= -2.0625E+00
--
 
 
      Input file to MOLDEN was generated!
 
 
      Input file to MOLDEN was generated!
 
 
      Input file to MOLDEN was generated!
 
 
      Input file to MOLDEN was generated!
 
 
      Input file to MOLDEN was generated!
 
 
      Input file to MOLDEN was generated!
 
 
      Input file to MOLDEN was generated!
 
      Average orbitals are written to the RASORB file
      Natural orbitals for root   1 are written to the RASORB.1 file
      Natural orbitals for root   2 are written to the RASORB.2 file
      Natural orbitals for root   3 are written to the RASORB.3 file
      Natural orbitals for root   4 are written to the RASORB.4 file
      Natural orbitals for root   5 are written to the RASORB.5 file
      Natural orbitals for root   6 are written to the RASORB.6 file
      Spin density orbitals for root   1 are written to the SPDORB.1 file
      Spin density orbitals for root   2 are written to the SPDORB.2 file
      Spin density orbitals for root   3 are written to the SPDORB.3 file
      Spin density orbitals for root   4 are written to the SPDORB.4 file
      Spin density orbitals for root   5 are written to the SPDORB.5 file
      Spin density orbitals for root   6 are written to the SPDORB.6 file
 
--- Stop Module: rasscf at Fri Mar 22 14:30:52 2024 /rc=_RC_ALL_IS_WELL_ ---
--- Module rasscf spent 2 seconds ---

>>> COPY MOLCAS.rasscf.molden MOLCAS.1.molden

*** symbolic link created: INPORB -> MOLCAS.RasOrb
--- Start Module: mcpdft at Fri Mar 22 14:30:52 2024 ---
 
()()()()()()()()()()()()()()()()()()()()()()()()()()()()()()()()()()()()()()()()()()()()()()()()()()

                                              &MCPDFT

                                   only a single process is used
                       available to each process: 10 GB of memory, 1 thread?
                                            pid: 1939558
()()()()()()()()()()()()()()()()()()()()()()()()()()()()()()()()()()()()()()()()()()()()()()()()()()
 
 
      Header of the ONEINT file:
      --------------------------
      
      Integrals generated by Gateway/Seward, Fri Mar 22 14:30:49 2024
 
 
      OrdInt status: non-squared
 
 
      Cartesian coordinates in Angstrom:
      -----------------------------------------------------
      No.  Label        X            Y            Z        
      -----------------------------------------------------
       1   S1         0.00000000   0.00000000   0.00084100
       2   H2         0.00000000   0.97479900   1.18293400
       3   H3        -0.01000000  -0.97479900   1.18293400
      -----------------------------------------------------
      Nuclear repulsion energy =   11.32331568
 
++    Wave function specifications:
      -----------------------------
 
      Number of closed shell electrons          10
      Number of electrons in active shells       8
      Max number of holes in RAS1 space          0
      Max nr of electrons in RAS3 space          0
      Number of inactive orbitals                5
      Number of active orbitals                  6
      Number of secondary orbitals              17
      Spin quantum number                      0.0
      State symmetry                             1
--
 
++    Orbital specifications:
      -----------------------
 
      Symmetry species                           1
                                                 a
      Frozen orbitals                            0
      Inactive orbitals                          5
      Active orbitals                            6
      RAS1 orbitals                              0
      RAS2 orbitals                              6
      RAS3 orbitals                              0
      Secondary orbitals                        17
      Deleted orbitals                           0
      Number of basis functions                 28
--
 
++    CI expansion specifications:
      ----------------------------
 
      Number of CSFs                             0
      Number of determinants                     0
      Number of root(s) required                 6
      Root chosen for geometry opt.              6
      highest root included in the CI            6
--
 
++    Optimization specifications:
      ----------------------------
 
      RASSCF algorithm: LK RI/DF
      This is a MC-PDFT calculation with functional: T:PBE                                                                           
      Exchange scaling factor                0.100E+01
      Correlation scaling factor             0.100E+01
--
      Starting CI array(s) will be read from file
 
 
      Numerical integration parameters
      --------------------------------
      Radial quadrature type:                         MHL       
      Size of radial grid:                            75
      Lebedev angular grid:                           29
      Screening threshold for integral computation:   0.00E+00
      Radial quadrature accuracy:                     1.00E-25
      Maximum batch size:                             128
      AO values are stored on disk
 
      DFT functional specifications
      -----------------------------
      Using Libxc version: 6.2.2
      Please cite the following reference:
      S. Lehtola, C. Steigemann, M. J.T. Oliveira, and M. A.L. Marques.,  SoftwareX 7, 1–5 (2018) doi:10.1016/j.softx.2017.11.002
 
      * Perdew, Burke & Ernzerhof
        - J. P. Perdew, K. Burke, and M. Ernzerhof.,  Phys. Rev. Lett. 77, 3865 (1996) doi:10.1103/PhysRevLett.77.3865
        - J. P. Perdew, K. Burke, and M. Ernzerhof.,  Phys. Rev. Lett. 78, 1396 (1997) doi:10.1103/PhysRevLett.78.1396
      * Perdew, Burke & Ernzerhof
        - J. P. Perdew, K. Burke, and M. Ernzerhof.,  Phys. Rev. Lett. 77, 3865 (1996) doi:10.1103/PhysRevLett.77.3865
        - J. P. Perdew, K. Burke, and M. Ernzerhof.,  Phys. Rev. Lett. 78, 1396 (1997) doi:10.1103/PhysRevLett.78.1396
 
      The MO-coefficients are taken from the file:
      JOBOLD
      Title:(No title given)                                                        
      ================================================================================
 
      keyword "MSPD" is used and file recording rotated hamiltonian is found. 
 
      Switching calculation to Multi-State Pair-Density Functional Theory (MS-PDFT) 
      calculation.
 
      The MS-PDFT method is CMS-PDFT.
 
      ================================================================================
 

      ********************************************************************************
      ********************************************************************************
      **                      CMS-PDFT INTERMEDIATE STATE 0001                      ** 
      ********************************************************************************
      MCSCF reference energy                                             -398.48659271

      Integrated total density:                                                 18.000
      Integrated alpha density before functional transformation:                 9.000
      Integrated  beta density before functional transformation:                 9.000
      Integrated alpha density  after functional transformation:                 9.881
      Integrated  beta density  after functional transformation:                 8.119
      NOTE:
      Densities after transformation are intermediate quantities
      and should not be interpreted as real spin densities

      Exchange energy scaling factor                                          1.000000
      Correlation energy scaling factor                                       1.000000

      Integrated alpha exchange energy                                      -13.079918
      Integrated beta  exchange energy                                      -12.399374
      Integrated  correlation   energy                                       -0.647411

      Nuclear Repulsion energy                                             11.32331568
      Core energy                                                        -360.53065553
      CASSCF contribution energy                                         -372.72061864
      On-top energy                                                       -26.12670361

      Total MC-PDFT energy for intermediate state     1                  -398.84732226

      ********************************************************************************


      ********************************************************************************
      ********************************************************************************
      **                      CMS-PDFT INTERMEDIATE STATE 0002                      ** 
      ********************************************************************************
      MCSCF reference energy                                             -398.34929146

      Integrated total density:                                                 18.000
      Integrated alpha density before functional transformation:                 9.000
      Integrated  beta density before functional transformation:                 9.000
      Integrated alpha density  after functional transformation:                 9.672
      Integrated  beta density  after functional transformation:                 8.328
      NOTE:
      Densities after transformation are intermediate quantities
      and should not be interpreted as real spin densities

      Exchange energy scaling factor                                          1.000000
      Correlation energy scaling factor                                       1.000000

      Integrated alpha exchange energy                                      -13.033567
      Integrated beta  exchange energy                                      -12.452945
      Integrated  correlation   energy                                       -0.655915

      Nuclear Repulsion energy                                             11.32331568
      Core energy                                                        -360.53065553
      CASSCF contribution energy                                         -372.84738884
      On-top energy                                                       -26.14242680

      Total MC-PDFT energy for intermediate state     2                  -398.98981564

      ********************************************************************************


      ********************************************************************************
      ********************************************************************************
      **                      CMS-PDFT INTERMEDIATE STATE 0003                      ** 
      ********************************************************************************
      MCSCF reference energy                                             -398.49339400

      Integrated total density:                                                 18.000
      Integrated alpha density before functional transformation:                 9.000
      Integrated  beta density before functional transformation:                 9.000
      Integrated alpha density  after functional transformation:                 9.672
      Integrated  beta density  after functional transformation:                 8.328
      NOTE:
      Densities after transformation are intermediate quantities
      and should not be interpreted as real spin densities

      Exchange energy scaling factor                                          1.000000
      Correlation energy scaling factor                                       1.000000

      Integrated alpha exchange energy                                      -13.033552
      Integrated beta  exchange energy                                      -12.452972
      Integrated  correlation   energy                                       -0.655917

      Nuclear Repulsion energy                                             11.32331568
      Core energy                                                        -360.53065553
      CASSCF contribution energy                                         -372.84737542
      On-top energy                                                       -26.14244084

      Total MC-PDFT energy for intermediate state     3                  -398.98981626

      ********************************************************************************


      ********************************************************************************
      ********************************************************************************
      **                      CMS-PDFT INTERMEDIATE STATE 0004                      ** 
      ********************************************************************************
      MCSCF reference energy                                             -398.34928558

      Integrated total density:                                                 18.000
      Integrated alpha density before functional transformation:                 9.000
      Integrated  beta density before functional transformation:                 9.000
      Integrated alpha density  after functional transformation:                 9.882
      Integrated  beta density  after functional transformation:                 8.118
      NOTE:
      Densities after transformation are intermediate quantities
      and should not be interpreted as real spin densities

      Exchange energy scaling factor                                          1.000000
      Correlation energy scaling factor                                       1.000000

      Integrated alpha exchange energy                                      -13.079951
      Integrated beta  exchange energy                                      -12.399343
      Integrated  correlation   energy                                       -0.647411

      Nuclear Repulsion energy                                             11.32331568
      Core energy                                                        -360.53065553
      CASSCF contribution energy                                         -372.72061166
      On-top energy                                                       -26.12670458

      Total MC-PDFT energy for intermediate state     4                  -398.84731624

      ********************************************************************************


      ********************************************************************************
      ********************************************************************************
      **                      CMS-PDFT INTERMEDIATE STATE 0005                      ** 
      ********************************************************************************
      MCSCF reference energy                                             -398.48659436

      Integrated total density:                                                 18.000
      Integrated alpha density before functional transformation:                 9.000
      Integrated  beta density before functional transformation:                 9.000
      Integrated alpha density  after functional transformation:                 9.981
      Integrated  beta density  after functional transformation:                 8.019
      NOTE:
      Densities after transformation are intermediate quantities
      and should not be interpreted as real spin densities

      Exchange energy scaling factor                                          1.000000
      Correlation energy scaling factor                                       1.000000

      Integrated alpha exchange energy                                      -13.128185
      Integrated beta  exchange energy                                      -12.356051
      Integrated  correlation   energy                                       -0.648339

      Nuclear Repulsion energy                                             11.32331568
      Core energy                                                        -360.53065553
      CASSCF contribution energy                                         -372.85421085
      On-top energy                                                       -26.13257550

      Total MC-PDFT energy for intermediate state     5                  -398.98678635

      ********************************************************************************


      ********************************************************************************
      ********************************************************************************
      **                      CMS-PDFT INTERMEDIATE STATE 0006                      ** 
      ********************************************************************************
      MCSCF reference energy                                             -398.49338407

      Integrated total density:                                                 18.000
      Integrated alpha density before functional transformation:                 9.000
      Integrated  beta density before functional transformation:                 9.000
      Integrated alpha density  after functional transformation:                 9.981
      Integrated  beta density  after functional transformation:                 8.019
      NOTE:
      Densities after transformation are intermediate quantities
      and should not be interpreted as real spin densities

      Exchange energy scaling factor                                          1.000000
      Correlation energy scaling factor                                       1.000000

      Integrated alpha exchange energy                                      -13.128179
      Integrated beta  exchange energy                                      -12.356055
      Integrated  correlation   energy                                       -0.648339

      Nuclear Repulsion energy                                             11.32331568
      Core energy                                                        -360.53065553
      CASSCF contribution energy                                         -372.85420439
      On-top energy                                                       -26.13257323

      Total MC-PDFT energy for intermediate state     6                  -398.98677763

      ********************************************************************************

      ********************************************************************************
 
                                  CMS-PDFT FINAL RESULTS
 
      ********************************************************************************
 
      CMS-PDFT Effective Hamiltonian
      (diagonal values increased by   390.00 hartree)
       -8.847322 -0.022481  0.000000 -0.010308  0.201747 -0.000000
       -0.022481 -8.989816 -0.000000 -0.005833  0.010309 -0.000000
        0.000000 -0.000000 -8.989816 -0.000000  0.000000  0.014812
       -0.010308 -0.005833 -0.000000 -8.847316  0.022475 -0.000000
        0.201747  0.010309  0.000000  0.022475 -8.986786 -0.000000
       -0.000000 -0.000000  0.014812 -0.000000 -0.000000 -8.986778
 
      CMS-PDFT Energies:
      ::    CMS-PDFT Root    1   Total energy:     -399.13585757
      ::    CMS-PDFT Root    2   Total energy:     -399.00318655
      ::    CMS-PDFT Root    3   Total energy:     -398.98717244
      ::    CMS-PDFT Root    4   Total energy:     -398.97340734
      ::    CMS-PDFT Root    5   Total energy:     -398.84531031
      ::    CMS-PDFT Root    6   Total energy:     -398.70290017
      CMS-PDFT Eigenvectors:
 
       Intermediate-state Basis
       Root    1      Root    2      Root    3      Root    4      Root    5      Root    6
        0.574329      -0.000000      -0.052277       0.000000       0.076455      -0.813368
        0.148344      -0.000000       0.987659      -0.000000       0.024921       0.043611
        0.000000       0.742307       0.000000       0.670060       0.000000      -0.000000
        0.085868       0.000000       0.013719       0.000000      -0.995637      -0.033838
       -0.800479      -0.000000       0.146996      -0.000000      -0.047329      -0.579125
        0.000000      -0.670060       0.000000       0.742307       0.000000       0.000000
       Reference-state Basis
       Root    1      Root    2      Root    3      Root    4      Root    5      Root    6
        0.983617       0.000000      -0.071552       0.000000       0.020543      -0.164182
       -0.000000       0.998703       0.000000      -0.050919       0.000000      -0.000000
       -0.000000      -0.050919      -0.000000      -0.998703      -0.000000      -0.000000
        0.070538      -0.000000       0.718746      -0.000000      -0.691307       0.022854
       -0.012010       0.000000      -0.688130       0.000000      -0.712078       0.138843
        0.165462       0.000000       0.069000      -0.000000       0.120900       0.976342
      ********************************************************************************
 
--- Stop Module: mcpdft at Fri Mar 22 14:30:56 2024 /rc=_RC_ALL_IS_WELL_ ---
--- Module mcpdft spent 3 seconds ---

>>> COPY MOLCAS.JobIph MOLCAS.1.JobIph

>>> COPY /public/manganese/scratch/tmp/sascha.925337/SAVE/MOLCAS.2.JobIph.0 JOBOLD

*** symbolic link created: INPORB -> MOLCAS.RasOrb
--- Start Module: rasscf at Fri Mar 22 14:30:56 2024 ---
 
()()()()()()()()()()()()()()()()()()()()()()()()()()()()()()()()()()()()()()()()()()()()()()()()()()

                                              &RASSCF

                                   only a single process is used
                       available to each process: 10 GB of memory, 1 thread?
                                            pid: 1939562
()()()()()()()()()()()()()()()()()()()()()()()()()()()()()()()()()()()()()()()()()()()()()()()()()()
 
 
      Header of the ONEINT file:
      --------------------------
      
      Integrals generated by Gateway/Seward, Fri Mar 22 14:30:49 2024
 
 
      OrdInt status: non-squared
 
 
      Cartesian coordinates in Angstrom:
      -----------------------------------------------------
      No.  Label        X            Y            Z        
      -----------------------------------------------------
       1   S1         0.00000000   0.00000000   0.00084100
       2   H2         0.00000000   0.97479900   1.18293400
       3   H3        -0.01000000  -0.97479900   1.18293400
      -----------------------------------------------------
      Nuclear repulsion energy =   11.32331568
 
++    Wave function specifications:
      -----------------------------
 
      Number of closed shell electrons          10
      Number of electrons in active shells       7
      Max number of holes in RAS1 space          0
      Max nr of electrons in RAS3 space          0
      Number of inactive orbitals                5
      Number of active orbitals                  6
      Number of secondary orbitals              17
      Spin quantum number                      0.5
      State symmetry                             1
--
 
++    Orbital specifications:
      -----------------------
 
      Symmetry species                           1
                                                 a
      Frozen orbitals                            0
      Inactive orbitals                          5
      Active orbitals                            6
      RAS1 orbitals                              0
      RAS2 orbitals                              6
      RAS3 orbitals                              0
      Secondary orbitals                        17
      Deleted orbitals                           0
      Number of basis functions                 28
--
 
++    CI expansion specifications:
      ----------------------------
 
      Number of CSFs                           210
      Number of determinants                   300
      Number of root(s) required                 4
      Root chosen for geometry opt.              4
      CI roots used                              1     2     3     4
      weights                                0.250 0.250 0.250 0.250
      highest root included in the CI            4
      max. size of the explicit Hamiltonian    200
--
 
++    Optimization specifications:
      ----------------------------
 
      RASSCF algorithm: LK RI/DF
      Maximum number of macro iterations       200
      Maximum number of SX iterations          100
      Threshold for RASSCF energy            0.100E-07
      Threshold for max MO rotation          0.100E-03
      Threshold for max BLB element          0.100E-03
      Level shift parameter                  0.500E+00
      Make Quasi-Newton update
--
 
      The MO-coefficients are taken from the file:
      JOBOLD
      Title:(No title given)                                                        
 
      Total molecular charge    1.00
 
      ************************************************************************************************************************
      *                                                                                                                      *
      *                                            Wave function control section                                             *
      *                                                                                                                      *
      ************************************************************************************************************************
 
 
                                         RASSCF iterations: Energy and convergence statistics
                                         ----------------------------------------------------
 
      Iter CI   SX   CI       RASSCF       Energy    max ROT     max BLB   max BLB  Level Ln srch  Step   QN   Walltime
          iter iter root      energy       change     param      element    value   shift minimum  type update hh:mm:ss
 Nr of preliminary CI iterations:   3
        1   1    3    0  -398.22922345    0.00E+00   0.91E-04    6  27 1  0.17E-04   0.00   0.00    SX    NO    0:00:00
        2   1    3    0  -398.22922345   -0.25E-08  -0.31E-04    8  14 1  0.30E-05   0.00   0.00    SX    NO    0:00:00
        3   1    2    0  -398.22922345   -0.47E-10   0.11E-04    6  20 1 -0.12E-05   0.00   0.00    SX    NO    0:00:00
        4   4    3    0  -398.22922384   -0.39E-06*  0.63E-04    6  27 1 -0.15E-04   0.00   0.00    SX    NO    0:00:00
        5   1    3    0  -398.22922385   -0.13E-08  -0.29E-04    8  14 1 -0.29E-05   0.00   1.25    QN   YES    0:00:00
      Convergence after  5 iterations
        6   1    3    0  -398.22922385   -0.11E-09  -0.29E-04    8  20 1  0.65E-06   0.00   1.25    QN   YES    0:00:00
 
 
    CMS INTERMEDIATE-STATE OPTIMIZATION
     START MATRX           XMS INTERMEDIATE STATES
     OPT ALGO                               NEWTON
     Q_a-a THRESHOLD                      1.00E-08
     GRAD  THRESHOLD                      1.00E-10
     MAX CYCLES                                100
     MIN CYCLES                                  5
 =======================================================================
      Cycle       Q_a-a        Difference  # Pos.     Largest    Step
                                           Hessian    Gradient   Scaled
 -----------------------------------------------------------------------
         0     43.26320254     0.00E+000      0     0.0000E+000   1.0
         1     43.26347201     2.69E-004      2     2.0641E-002   1.0
         2     43.26347923     7.22E-006      2     4.7926E-004   1.0
         3     43.26350811     2.89E-005      2     9.5801E-004   1.0
         4     43.26362395     1.16E-004      2     1.9119E-003   1.0
         5     43.26409221     4.68E-004      2     3.7909E-003   1.0
         6     43.26603546     1.94E-003      2     7.3051E-003   1.0
         7     43.26760553     1.57E-003      2     1.1865E-002   1.0
         8     43.26763636     3.08E-005      1     1.1180E-002   1.0
         9     43.26779561     1.59E-004      1     1.0822E-002   1.0
        10     43.27189362     4.10E-003      2     1.6498E-002   1E-1
        11     43.27331540     1.42E-003      1     1.1776E-002   1.0
        12     43.27754680     4.23E-003      1     2.2333E-002   1.0
        13     43.27881463     1.27E-003      0     1.6381E-002   1.0
        14     43.27883598     2.13E-005      0     1.2457E-003   1.0
        15     43.27883599     1.17E-008      0     2.4195E-005   1.0
        16     43.27883599     4.97E-014      0     1.7837E-008   1.0
        17     43.27883599    -1.42E-014      0     7.5168E-015   1.0
    CONVERGENCE REACHED
 =======================================================================
 
 =======================================================================
 
           Do_Rotate.txt is found in scratch directory.
           Following properties are for CMS intermediate states.
 
 =======================================================================
 
      ************************************************************************************************************************
                                                      Wave function printout:
                       occupation of active orbitals, and spin coupling of open shells (u,d: Spin up or down)
      ************************************************************************************************************************
 
      Note: transformation to natural orbitals
      has been made, which may change the order of the CSFs.
 
      printout of CI-coefficients larger than  0.10 for root  1
      energy=    -398.226605
      conf/sym  111111     Coeff  Weight
             4  22u200   0.68744 0.47257
            13  2u2200   0.68363 0.46735
 
      printout of CI-coefficients larger than  0.10 for root  2
      energy=    -398.367698
      conf/sym  111111     Coeff  Weight
             1  222u00   0.97372 0.94814
            44  2uduud   0.10404 0.01082
            56  202u20   0.10752 0.01156
 
      printout of CI-coefficients larger than  0.10 for root  3
      energy=    -398.226603
      conf/sym  111111     Coeff  Weight
             4  22u200  -0.68984 0.47588
            13  2u2200   0.68121 0.46404
 
      printout of CI-coefficients larger than  0.10 for root  4
      energy=    -398.095989
      conf/sym  111111     Coeff  Weight
             2  2220u0  -0.95891 0.91952
            11  22u0ud   0.12601 0.01588
            16  2u2020   0.13076 0.01710
 
      Natural orbitals and occupation numbers for root  1
      sym 1:   1.979685   1.001937   1.948896   1.998529   0.050169   0.020784
 
      Natural orbitals and occupation numbers for root  2
      sym 1:   1.994887   1.949417   1.958168   1.000000   0.059659   0.037869
 
      Natural orbitals and occupation numbers for root  3
      sym 1:   1.979685   1.948891   1.001937   1.998528   0.050173   0.020784
 
      Natural orbitals and occupation numbers for root  4
      sym 1:   1.979258   1.978410   1.951429   0.031666   1.000156   0.059081
 
      ************************************************************************************************************************
      *                                                                                                                      *
      *                                                    Final results                                                     *
      *                                                                                                                      *
      ************************************************************************************************************************
 
 
++    Wave function specifications:
      -----------------------------
 
      Number of closed shell electrons          10
      Number of electrons in active shells       7
      Max number of holes in RAS1 space          0
      Max nr of electrons in RAS3 space          0
      Number of inactive orbitals                5
      Number of active orbitals                  6
      Number of secondary orbitals              17
      Spin quantum number                      0.5
      State symmetry                             1
--
 
++    Orbital specifications:
      -----------------------
 
      Symmetry species                           1
                                                 a
      Frozen orbitals                            0
      Inactive orbitals                          5
      Active orbitals                            6
      RAS1 orbitals                              0
      RAS2 orbitals                              6
      RAS3 orbitals                              0
      Secondary orbitals                        17
      Deleted orbitals                           0
      Number of basis functions                 28
--
 
++    CI expansion specifications:
      ----------------------------
 
      Number of CSFs                           210
      Number of determinants                   300
      Number of root(s) required                 4
      CI roots used                              1     2     3     4
      weights                                0.250 0.250 0.250 0.250
      highest root included in the CI            4
      Root passed to geometry opt.               4
--
 
++    Final optimization conditions:
      ------------------------------
 
      Average CI energy                            -398.22922385
      RASSCF energy for state  4                   -398.09598911
      Super-CI energy                                -0.00000000
      RASSCF energy change                            0.00000000
      Max change in MO coefficients               0.134E-03
      Max non-diagonal density matrix element    -0.292E-04
      Maximum BLB matrix element                  0.652E-06
      (orbital pair   8,  20 in symmetry   1)
      Norm of electronic gradient            0.810E-01
--
 
 
      Final state energy(ies):
      ------------------------
 
::    RASSCF root number  1 Total energy:   -398.22660530
::    RASSCF root number  2 Total energy:   -398.36769817
::    RASSCF root number  3 Total energy:   -398.22660280
::    RASSCF root number  4 Total energy:   -398.09598911
      Von Neumann Entropy (Root   1) =  0.75344
 

      Mulliken population analysis for root number:  1
      -----------------------------------------------
 
 
++    Molecular charges:
      ------------------
 
      Mulliken charges per centre
      ---------------------------
 
                S1      H2      H3    
      Total   15.6242  0.7781  0.5977
 
      N-E      0.3758  0.2219  0.4023
 
      Total electronic charge=   17.000000
 
      Total            charge=    1.000000
--
 
 

      Expectation values of various properties for root number:  1
      -----------------------------------------------------------
 
 
++    Molecular properties:
      ---------------------
 
      Charge (e):
                      =    1.0000
      Dipole Moment (Debye):
      Origin of the operator (Ang)=    0.0000    0.0000    0.0000
                   X= -1.5338E-02               Y= -5.3160E-01               Z=  2.9857E+00           Total=  3.0327E+00
      Center of Charge (Ang)
                     X=   -0.00319336               Y=   -0.11067610               Z=    0.62159780
      Quadrupole Moment (Debye*Ang):
      Origin of the operator (Ang)=   -0.0003    0.0000    0.0709
                  XX= -1.4267E+01              XY=  3.8904E-02              XZ= -3.8962E-02              YY= -8.1200E+00
                  YZ= -1.7435E+00              ZZ= -7.1699E+00
      In traceless form (Debye*Ang)
                  XX= -6.6216E+00              XY=  5.8356E-02              XZ= -5.8443E-02              YY=  2.5983E+00
                  YZ= -2.6153E+00              ZZ=  4.0234E+00
--
 

      Mulliken spin population analysis for root number:  1
      ---------------------------------------------------
 
 
++    Molecular charges:
      ------------------
 
      Mulliken spin population per centre
      ---------------------------
 
                S1      H2      H3    
      Total    0.5390 -0.0304  0.4914
 
      Total electronic spin=    1.000000
--
 
 
      Von Neumann Entropy (Root   2) =  0.82907
 

      Mulliken population analysis for root number:  2
      -----------------------------------------------
 
 
++    Molecular charges:
      ------------------
 
      Mulliken charges per centre
      ---------------------------
 
                S1      H2      H3    
      Total   15.4687  0.7656  0.7656
 
      N-E      0.5313  0.2344  0.2344
 
      Total electronic charge=   17.000000
 
      Total            charge=    1.000000
--
 
 

      Expectation values of various properties for root number:  2
      -----------------------------------------------------------
 
 
++    Molecular properties:
      ---------------------
 
      Charge (e):
                      =    1.0000
      Dipole Moment (Debye):
      Origin of the operator (Ang)=    0.0000    0.0000    0.0000
                   X= -1.0667E-02               Y=  1.3024E-05               Z=  2.5258E+00           Total=  2.5259E+00
      Center of Charge (Ang)
                     X=   -0.00222073               Y=    0.00000271               Z=    0.52586725
      Quadrupole Moment (Debye*Ang):
      Origin of the operator (Ang)=   -0.0003    0.0000    0.0709
                  XX= -1.1671E+01              XY=  1.0707E-02              XZ= -1.2014E-02              YY= -9.5838E+00
                  YZ=  9.4309E-06              ZZ= -8.8309E+00
      In traceless form (Debye*Ang)
                  XX= -2.4639E+00              XY=  1.6061E-02              XZ= -1.8022E-02              YY=  6.6723E-01
                  YZ=  1.4146E-05              ZZ=  1.7966E+00
--
 

      Mulliken spin population analysis for root number:  2
      ---------------------------------------------------
 
 
++    Molecular charges:
      ------------------
 
      Mulliken spin population per centre
      ---------------------------
 
                S1      H2      H3    
      Total    1.1013 -0.0507 -0.0507
 
      Total electronic spin=    1.000000
--
 
 
      Von Neumann Entropy (Root   3) =  0.75345
 

      Mulliken population analysis for root number:  3
      -----------------------------------------------
 
 
++    Molecular charges:
      ------------------
 
      Mulliken charges per centre
      ---------------------------
 
                S1      H2      H3    
      Total   15.6242  0.5977  0.7781
 
      N-E      0.3758  0.4023  0.2219
 
      Total electronic charge=   17.000000
 
      Total            charge=    1.000000
--
 
 

      Expectation values of various properties for root number:  3
      -----------------------------------------------------------
 
 
++    Molecular properties:
      ---------------------
 
      Charge (e):
                      =    1.0000
      Dipole Moment (Debye):
      Origin of the operator (Ang)=    0.0000    0.0000    0.0000
                   X= -9.8847E-03               Y=  5.3162E-01               Z=  2.9856E+00           Total=  3.0326E+00
      Center of Charge (Ang)
                     X=   -0.00205793               Y=    0.11068119               Z=    0.62159230
      Quadrupole Moment (Debye*Ang):
      Origin of the operator (Ang)=   -0.0003    0.0000    0.0709
                  XX= -1.4267E+01              XY=  2.4154E-02              XZ= -2.1076E-02              YY= -8.1200E+00
                  YZ=  1.7437E+00              ZZ= -7.1698E+00
      In traceless form (Debye*Ang)
                  XX= -6.6218E+00              XY=  3.6231E-02              XZ= -3.1613E-02              YY=  2.5983E+00
                  YZ=  2.6155E+00              ZZ=  4.0236E+00
--
 

      Mulliken spin population analysis for root number:  3
      ---------------------------------------------------
 
 
++    Molecular charges:
      ------------------
 
      Mulliken spin population per centre
      ---------------------------
 
                S1      H2      H3    
      Total    0.5390  0.4914 -0.0304
 
      Total electronic spin=    1.000000
--
 
 
      Von Neumann Entropy (Root   4) =  0.80974
 

      Mulliken population analysis for root number:  4
      -----------------------------------------------
 
 
++    Molecular charges:
      ------------------
 
      Mulliken charges per centre
      ---------------------------
 
                S1      H2      H3    
      Total   15.1906  0.9047  0.9047
 
      N-E      0.8094  0.0953  0.0953
 
      Total electronic charge=   17.000000
 
      Total            charge=    1.000000
--
 
 

      Expectation values of various properties for root number:  4
      -----------------------------------------------------------
 
 
++    Molecular properties:
      ---------------------
 
      Charge (e):
                      =    1.0000
      Dipole Moment (Debye):
      Origin of the operator (Ang)=    0.0000    0.0000    0.0000
                   X= -5.8743E-03               Y=  3.5959E-04               Z=  1.3933E+00           Total=  1.3933E+00
      Center of Charge (Ang)
                     X=   -0.00122299               Y=    0.00007487               Z=    0.29006889
      Quadrupole Moment (Debye*Ang):
      Origin of the operator (Ang)=   -0.0003    0.0000    0.0709
                  XX= -9.0997E+00              XY= -1.7011E-02              XZ=  1.0601E-02              YY= -1.2415E+01
                  YZ=  7.7550E-04              ZZ= -1.1605E+01
      In traceless form (Debye*Ang)
                  XX=  2.9104E+00              XY= -2.5516E-02              XZ=  1.5901E-02              YY= -2.0630E+00
                  YZ=  1.1632E-03              ZZ= -8.4734E-01
--
 

      Mulliken spin population analysis for root number:  4
      ---------------------------------------------------
 
 
++    Molecular charges:
      ------------------
 
      Mulliken spin population per centre
      ---------------------------
 
                S1      H2      H3    
      Total    0.2297  0.3850  0.3853
 
      Total electronic spin=    1.000000
--
 
 
 
      Input file to MOLDEN was generated!
 
 
      Input file to MOLDEN was generated!
 
 
      Input file to MOLDEN was generated!
 
 
      Input file to MOLDEN was generated!
 
 
      Input file to MOLDEN was generated!
 
      Average orbitals are written to the RASORB file
      Natural orbitals for root   1 are written to the RASORB.1 file
      Natural orbitals for root   2 are written to the RASORB.2 file
      Natural orbitals for root   3 are written to the RASORB.3 file
      Natural orbitals for root   4 are written to the RASORB.4 file
      Spin density orbitals for root   1 are written to the SPDORB.1 file
      Spin density orbitals for root   2 are written to the SPDORB.2 file
      Spin density orbitals for root   3 are written to the SPDORB.3 file
      Spin density orbitals for root   4 are written to the SPDORB.4 file
 
--- Stop Module: rasscf at Fri Mar 22 14:30:58 2024 /rc=_RC_ALL_IS_WELL_ ---
--- Module rasscf spent 2 seconds ---

>>> COPY MOLCAS.rasscf.molden MOLCAS.2.molden

*** symbolic link created: INPORB -> MOLCAS.RasOrb
--- Start Module: mcpdft at Fri Mar 22 14:30:58 2024 ---
 
()()()()()()()()()()()()()()()()()()()()()()()()()()()()()()()()()()()()()()()()()()()()()()()()()()

                                              &MCPDFT

                                   only a single process is used
                       available to each process: 10 GB of memory, 1 thread?
                                            pid: 1939565
()()()()()()()()()()()()()()()()()()()()()()()()()()()()()()()()()()()()()()()()()()()()()()()()()()
 
 
      Header of the ONEINT file:
      --------------------------
      
      Integrals generated by Gateway/Seward, Fri Mar 22 14:30:49 2024
 
 
      OrdInt status: non-squared
 
 
      Cartesian coordinates in Angstrom:
      -----------------------------------------------------
      No.  Label        X            Y            Z        
      -----------------------------------------------------
       1   S1         0.00000000   0.00000000   0.00084100
       2   H2         0.00000000   0.97479900   1.18293400
       3   H3        -0.01000000  -0.97479900   1.18293400
      -----------------------------------------------------
      Nuclear repulsion energy =   11.32331568
 
++    Wave function specifications:
      -----------------------------
 
      Number of closed shell electrons          10
      Number of electrons in active shells       7
      Max number of holes in RAS1 space          0
[...]
     2  0.0  0.0    1  0.0  0.0         0.000         0.000         0.000
     2  0.0  0.0    2  0.0  0.0         0.000         0.000         0.000
     3  0.0  0.0    1  0.0  0.0         0.000         0.000         0.000
     3  0.0  0.0    2  0.0  0.0         0.000         0.000         0.000
     3  0.0  0.0    3  0.0  0.0         0.000         0.000         0.000
     4  0.0  0.0    1  0.0  0.0         0.000         0.000         0.000
     4  0.0  0.0    2  0.0  0.0         0.000         0.000         0.000
     4  0.0  0.0    3  0.0  0.0         0.000         0.000         0.000
     4  0.0  0.0    4  0.0  0.0         0.000         0.000         0.000
     5  0.0  0.0    1  0.0  0.0         0.000         0.000         0.000
     5  0.0  0.0    2  0.0  0.0         0.000         0.000         0.000
     5  0.0  0.0    3  0.0  0.0         0.000         0.000         0.000
     5  0.0  0.0    4  0.0  0.0         0.000         0.000         0.000
     5  0.0  0.0    5  0.0  0.0         0.000         0.000         0.000
     6  0.0  0.0    1  0.0  0.0         0.000         0.000         0.000
     6  0.0  0.0    2  0.0  0.0         0.000         0.000         0.000
     6  0.0  0.0    3  0.0  0.0         0.000         0.000         0.000
     6  0.0  0.0    4  0.0  0.0         0.000         0.000         0.000
     6  0.0  0.0    5  0.0  0.0         0.000         0.000         0.000
     6  0.0  0.0    6  0.0  0.0         0.000         0.000         0.000
     7  0.5 -0.5    1  0.0  0.0         0.000         0.000         0.000
     7  0.5 -0.5    2  0.0  0.0         0.000         0.000         0.000
     7  0.5 -0.5    3  0.0  0.0         0.000         0.000         0.000
     7  0.5 -0.5    4  0.0  0.0         0.000         0.000         0.000
     7  0.5 -0.5    5  0.0  0.0         0.000         0.000         0.000
     7  0.5 -0.5    6  0.0  0.0         0.000         0.000         0.000
     7  0.5 -0.5    7  0.5 -0.5         0.000        -0.000         0.000
     8  0.5  0.5    1  0.0  0.0         0.000         0.000         0.000
     8  0.5  0.5    2  0.0  0.0         0.000         0.000         0.000
     8  0.5  0.5    3  0.0  0.0         0.000         0.000         0.000
     8  0.5  0.5    4  0.0  0.0         0.000         0.000         0.000
     8  0.5  0.5    5  0.0  0.0         0.000         0.000         0.000
     8  0.5  0.5    6  0.0  0.0         0.000         0.000         0.000
     8  0.5  0.5    7  0.5 -0.5         0.000        -0.000         0.000
     8  0.5  0.5    8  0.5  0.5         0.000         0.000         0.000
     9  0.5 -0.5    1  0.0  0.0         0.000         0.000         0.000
     9  0.5 -0.5    2  0.0  0.0         0.000         0.000         0.000
     9  0.5 -0.5    3  0.0  0.0         0.000         0.000         0.000
     9  0.5 -0.5    4  0.0  0.0         0.000         0.000         0.000
     9  0.5 -0.5    5  0.0  0.0         0.000         0.000         0.000
     9  0.5 -0.5    6  0.0  0.0         0.000         0.000         0.000
     9  0.5 -0.5    7  0.5 -0.5         0.000         0.015         0.015
     9  0.5 -0.5    8  0.5  0.5       157.405        -0.807       157.407
     9  0.5 -0.5    9  0.5 -0.5         0.000        -0.000         0.000
    10  0.5  0.5    1  0.0  0.0         0.000         0.000         0.000
    10  0.5  0.5    2  0.0  0.0         0.000         0.000         0.000
    10  0.5  0.5    3  0.0  0.0         0.000         0.000         0.000
    10  0.5  0.5    4  0.0  0.0         0.000         0.000         0.000
    10  0.5  0.5    5  0.0  0.0         0.000         0.000         0.000
    10  0.5  0.5    6  0.0  0.0         0.000         0.000         0.000
    10  0.5  0.5    7  0.5 -0.5      -157.405        -0.807       157.407
    10  0.5  0.5    8  0.5  0.5         0.000        -0.015         0.015
    10  0.5  0.5    9  0.5 -0.5        -0.000        -0.000         0.000
    10  0.5  0.5   10  0.5  0.5         0.000         0.000         0.000
    11  1.0 -1.0    1  0.0  0.0        -8.058        -0.506         8.074
    11  1.0 -1.0    2  0.0  0.0        -0.016        -3.126         3.126
    11  1.0 -1.0    3  0.0  0.0        45.158        -0.346        45.159
    11  1.0 -1.0    4  0.0  0.0        -0.315       -61.319        61.320
    11  1.0 -1.0    5  0.0  0.0        44.000        -0.089        44.000
    11  1.0 -1.0    6  0.0  0.0       -62.322         0.404        62.323
    11  1.0 -1.0    7  0.5 -0.5         0.000         0.000         0.000
    11  1.0 -1.0    8  0.5  0.5         0.000         0.000         0.000
    11  1.0 -1.0    9  0.5 -0.5         0.000         0.000         0.000
    11  1.0 -1.0   10  0.5  0.5         0.000         0.000         0.000
    11  1.0 -1.0   11  1.0 -1.0         0.000         0.000         0.000
    12  1.0  0.0    1  0.0  0.0         0.000       183.102       183.102
    12  1.0  0.0    2  0.0  0.0         0.000        -0.019         0.019
    12  1.0  0.0    3  0.0  0.0         0.000        38.346        38.346
    12  1.0  0.0    4  0.0  0.0         0.000        -0.367         0.367
    12  1.0  0.0    5  0.0  0.0         0.000       -45.647        45.647
    12  1.0  0.0    6  0.0  0.0         0.000       -28.076        28.076
    12  1.0  0.0    7  0.5 -0.5         0.000         0.000         0.000
    12  1.0  0.0    8  0.5  0.5         0.000         0.000         0.000
    12  1.0  0.0    9  0.5 -0.5         0.000         0.000         0.000
    12  1.0  0.0   10  0.5  0.5         0.000         0.000         0.000
    12  1.0  0.0   11  1.0 -1.0        -0.000        -0.000         0.000
    12  1.0  0.0   12  1.0  0.0         0.000         0.000         0.000
    13  1.0  1.0    1  0.0  0.0        -8.058         0.506         8.074
    13  1.0  1.0    2  0.0  0.0        -0.016         3.126         3.126
    13  1.0  1.0    3  0.0  0.0        45.158         0.346        45.159
    13  1.0  1.0    4  0.0  0.0        -0.315        61.319        61.320
    13  1.0  1.0    5  0.0  0.0        44.000         0.089        44.000
    13  1.0  1.0    6  0.0  0.0       -62.322        -0.404        62.323
    13  1.0  1.0    7  0.5 -0.5         0.000         0.000         0.000
    13  1.0  1.0    8  0.5  0.5         0.000         0.000         0.000
    13  1.0  1.0    9  0.5 -0.5         0.000         0.000         0.000
    13  1.0  1.0   10  0.5  0.5         0.000         0.000         0.000
    13  1.0  1.0   11  1.0 -1.0         0.000         0.000         0.000
    13  1.0  1.0   12  1.0  0.0        -0.000        -0.000         0.000
    13  1.0  1.0   13  1.0  1.0         0.000        -0.000         0.000
 ----------------------------------------------------------------------
 
       Total energies including SO-coupling:
::    SO-RASSI State    1     Total energy:    -399.13586318936734
::    SO-RASSI State    2     Total energy:    -399.01159833323493
::    SO-RASSI State    3     Total energy:    -399.01159746324862
::    SO-RASSI State    4     Total energy:    -399.01158873337982
::    SO-RASSI State    5     Total energy:    -399.00318649863306
::    SO-RASSI State    6     Total energy:    -398.98716772830102
::    SO-RASSI State    7     Total energy:    -398.97340325347585
::    SO-RASSI State    8     Total energy:    -398.84530956495092
::    SO-RASSI State    9     Total energy:    -398.80681693660995
::    SO-RASSI State   10     Total energy:    -398.80681693660995
::    SO-RASSI State   11     Total energy:    -398.70289959001258
::    SO-RASSI State   12     Total energy:    -398.68316167697088
::    SO-RASSI State   13     Total energy:    -398.68316167697088
 
 
   Eigenvalues of complex Hamiltonian:
   -----------------------------------
  (Shifted by EMIN (a.u.) =       -399.1358575667)
 
 SO State       Relative EMIN(au)   Rel lowest level(eV)    D:o, cm**(-1)
 
     1            -0.0000056226        0.0000000000              0.0000
     2             0.1242592335        3.3814189970          27272.9835
     3             0.1242601035        3.3814426706          27273.1744
     4             0.1242688334        3.3816802224          27275.0904
     5             0.1326710681        3.6103166774          29119.1678
     6             0.1486898384        4.0462096241          32634.8815
     7             0.1624543133        4.4207600650          35655.8345
     8             0.2905480018        7.9063668992          63769.1496
     9             0.3290406301        8.9538046766          72217.3050
    10             0.3290406301        8.9538046766          72217.3050
    11             0.4329579767       11.7815397325          95024.5264
    12             0.4526958898       12.3186357080          99356.4976
    13             0.4526958898       12.3186357080          99356.4976
 
 
 Weights of the five most important spin-orbit-free states for each spin-orbit s
 tate.
 
 SO State  Total energy (au)           Spin-free states, spin, and weights
 -------------------------------------------------------------------------------
 ------------------------
    1        -0.000006       1 0.0  1.0000    9 1.0  0.0000    3 0.0  0.0000    5 0.0  0.0000    6 0.0  0.0000
    2         0.124259       9 1.0  0.9998    3 0.0  0.0002    6 0.0  0.0000    5 0.0  0.0000    1 0.0  0.0000
    3         0.124260       9 1.0  0.9999    4 0.0  0.0001    2 0.0  0.0000    3 0.0  0.0000    1 0.0  0.0000
    4         0.124269       9 1.0  0.9999    1 0.0  0.0000    3 0.0  0.0000    5 0.0  0.0000    6 0.0  0.0000
    5         0.132671       2 0.0  1.0000    9 1.0  0.0000    4 0.0  0.0000    6 0.0  0.0000    1 0.0  0.0000
    6         0.148690       3 0.0  0.9998    9 1.0  0.0002    1 0.0  0.0000    6 0.0  0.0000    5 0.0  0.0000
    7         0.162454       4 0.0  0.9999    9 1.0  0.0001    2 0.0  0.0000    1 0.0  0.0000    3 0.0  0.0000
    8         0.290548       5 0.0  1.0000    9 1.0  0.0000    1 0.0  0.0000    6 0.0  0.0000    3 0.0  0.0000
    9         0.329041       7 0.5  1.0000    8 0.5  0.0000    9 1.0  0.0000    6 0.0  0.0000    5 0.0  0.0000
   10         0.329041       7 0.5  1.0000    8 0.5  0.0000    9 1.0  0.0000    6 0.0  0.0000    5 0.0  0.0000
   11         0.432958       6 0.0  1.0000    9 1.0  0.0000    5 0.0  0.0000    3 0.0  0.0000    1 0.0  0.0000
   12         0.452696       8 0.5  1.0000    7 0.5  0.0000    9 1.0  0.0000    6 0.0  0.0000    5 0.0  0.0000
   13         0.452696       8 0.5  1.0000    7 0.5  0.0000    9 1.0  0.0000    6 0.0  0.0000    5 0.0  0.0000
 -------------------------------------------------------------------------------
 ------------------------
 
 
      ****************************************************************************************************
      *                                                                                                  *
      *                                    Special properties section                                    *
      *                                                                                                  *
      ****************************************************************************************************
 
 
++ Dipole transition strengths (SO states):
   ----------------------------------------
        for osc. strength at least   1.00000000E-05
 
      From   To        Osc. strength     Einstein coefficients Ax, Ay, Az (sec-1)    Total A (sec-1)
     -----------------------------------------------------------------------------------------------
         1    5       1.00631932E-04  5.69136922E+04  1.49736119E+00  1.01824778E+00  5.69162078E+04
         1    6       3.22424889E-03  2.01902951E+01  1.15665659E+05  2.17483825E+06  2.29052410E+06
         1    7       2.46250800E-04  2.08815097E+05  5.49378559E+00  3.73592950E+00  2.08824326E+05
         1    8       1.16288651E-02  1.32589299E+03  1.17988088E+07  1.97427065E+07  3.15428412E+07
         1   11       8.97149068E-01  1.46364273E+05  5.40164183E+09  1.75048978E+06  5.40353869E+09
         4   11       3.30826395E-05  2.64043537E+00  1.01281282E+05  3.08711581E+00  1.01287009E+05
         5    6       1.47418767E-04  1.21535405E+03  3.19751588E-02  2.17440045E-02  1.21540777E+03
         5    7       7.86264559E-03  6.25656092E+00  2.23770380E+05  3.13952272E+02  2.24090588E+05
         5    8       8.71935950E-04  6.98254331E+05  1.83706070E+01  1.24925288E+01  6.98285194E+05
         5   11       1.25690166E-02  3.64137818E+07  9.58022347E+02  6.51482125E+02  3.64153913E+07
         6    7       2.96620426E-04  1.80556045E+03  4.75030885E-02  3.23034405E-02  1.80564026E+03
         6    8       7.40606606E-04  3.77546520E+00  3.01305553E+04  4.48724092E+05  4.78858423E+05
         6   11       9.22231498E-03  3.63990511E+02  2.24260517E+07  1.51816337E+06  2.39445790E+07
         7    8       2.91931937E-03  1.53896506E+06  4.04891460E+01  2.75337567E+01  1.53903308E+06
         7   11       3.63490273E-05  8.54536827E+04  2.24822982E+00  1.52885914E+00  8.54574598E+04
         8   11       1.47243334E-03  1.80822128E+01  9.32079296E+05  2.73636672E+04  9.59461045E+05
         9   12       8.08851988E-03  3.97361634E+06  1.04543199E+02  7.10923093E+01  3.97379198E+06
        10   13       8.08851988E-03  3.97361634E+06  1.04543199E+02  7.10923093E+01  3.97379198E+06
     -----------------------------------------------------------------------------------------------
--
 
++ Velocity transition strengths (SO states):
   ------------------------------------------
        for osc. strength at least   1.00000000E-05
 
      From   To        Osc. strength     Einstein coefficients Ax, Ay, Az (sec-1)    Total A (sec-1)
     -----------------------------------------------------------------------------------------------
         1    5       1.36418487E-04  7.71532418E+04  2.02985075E+00  1.38035547E+00  7.71566520E+04
         1    6       3.18727022E-02  1.28501904E+02  2.28272744E+06  2.03596866E+07  2.26425425E+07
         1    7       6.34300979E-03  5.37872852E+06  1.41510772E+02  9.62312921E+01  5.37896627E+06
         1    8       2.09145311E-02  2.36765981E+03  2.03894492E+07  3.63380299E+07  5.67298468E+07
         1   11       7.19649244E-01  1.13001694E+05  4.33421207E+09  1.30223966E+05  4.33445530E+09
         2    3       1.35451216E-05  3.29381674E-07  8.66581248E-12  5.89299603E-12  3.29396233E-07
         4   11       4.61801930E-05  3.78278142E+00  1.41368160E+05  1.50114390E+01  1.41386954E+05
         5    6       8.00407773E-03  6.59874484E+04  1.73608582E+00  1.18058715E+00  6.59903650E+04
         5    7       6.62728980E-04  4.96762241E-01  1.88877158E+04  7.28794359E-04  1.88882133E+04
         5    8       3.12106778E-04  2.49937979E+05  6.57570191E+00  4.47166207E+00  2.49949026E+05
         5   11       4.98963902E-03  1.44555165E+07  3.80315009E+02  2.58624897E+02  1.44561554E+07
         6    7       5.20803153E-02  3.17018484E+05  8.34054525E+00  5.67180518E+00  3.17032497E+05
         6    8       3.94986002E-04  1.05735010E+01  2.09968524E+05  4.54093533E+04  2.55388451E+05
         6   11       1.64758024E-03  1.81592596E+02  3.33229968E+06  9.45253257E+05  4.27773453E+06
         7    8       6.17319038E-03  3.25429428E+06  8.56183155E+01  5.82228607E+01  3.25443812E+06
         7   11       1.36937559E-05  3.21929351E+04  8.46974877E-01  5.75966499E-01  3.21943580E+04
         8   11       8.74465072E-04  1.58539358E+01  2.88094071E+04  5.40990124E+05  5.69815385E+05
         9   12       1.53433804E-02  7.53768403E+06  1.98311446E+02  1.34857346E+02  7.53801720E+06
        10   13       1.53433804E-02  7.53768403E+06  1.98311446E+02  1.34857346E+02  7.53801720E+06
     -----------------------------------------------------------------------------------------------
--
 
++ Length and velocity gauge comparison (SO states):
 
 --------------------------------------------------
 A comparison between the dipole oscillator strengths in 
 length and velocity gauge will be performed
 
     All dipole oscillator differences above the tolerance of   1.00000000E-01  will be printed 
 
 Due to basis set deficiency these oscillator may be problematic 
 
 The tolerance is defined as ABS(1-O_l/O_v) 
 O_l : dipole oscillator strength in length gauge
 O_p : dipole oscillator strength in velocity gauge
 --------------------------------------------------
 
  Problematic transitions have been found
 
      From   To       Difference (%) Osc. st. (len.) Osc. st. (vel.)
     ---------------------------------------------------------------
         1    5            26.232922  1.00631932E-04  1.36418487E-04
         1    6            89.883980  3.22424889E-03  3.18727022E-02
         1    7            96.117761  2.46250800E-04  6.34300979E-03
         1    8            44.398155  1.16288651E-02  2.09145311E-02
         1   11            24.664769  8.97149068E-01  7.19649244E-01
         2    3      --------------- below threshold  1.35451216E-05
         4   11            28.361842  3.30826395E-05  4.61801930E-05
         5    6            98.158204  1.47418767E-04  8.00407773E-03
         5    7          1086.404371  7.86264559E-03  6.62728980E-04
         5    8           179.371040  8.71935950E-04  3.12106778E-04
         5   11           151.902323  1.25690166E-02  4.98963902E-03
         6    7            99.430456  2.96620426E-04  5.20803153E-02
         6    8            87.501988  7.40606606E-04  3.94986002E-04
         6   11           459.749064  9.22231498E-03  1.64758024E-03
         7    8            52.709714  2.91931937E-03  6.17319038E-03
         7   11           165.442348  3.63490273E-05  1.36937559E-05
         8   11            68.381035  1.47243334E-03  8.74465072E-04
         9   12            47.283326  8.08851988E-03  1.53433804E-02
        10   13            47.283326  8.08851988E-03  1.53433804E-02
     ---------------------------------------------------------------
 
 Number of problematic transitions =                     19
 
--
 
 Electric-dipole - electric-octupole not included
++ I/O STATISTICS
 
  I. General I/O information
  - - - - - - - - - - - - - - - - - - - - - - - - - - - - - - - - - - - - - - - - - - -
  Unit  Name          Flsize      Write/Read            MBytes           Write/Read
                      (MBytes)       Calls              In/Out           Time, sec.
  - - - - - - - - - - - - - - - - - - - - - - - - - - - - - - - - - - - - - - - - - - -
   1  ANNI              0.00 .       0/       0 .      0.0/      0.0 .       0/       0
   2  RUNFILE           0.28 .     322/    7602 .      2.3/     55.1 .       0/       0
   3  ONEINT            1.46 .       0/    2757 .      0.0/   2496.5 .       0/       0
   4  JOB001            1.22 .       0/      83 .      0.0/      1.1 .       0/       0
   5  JOB002            1.22 .       0/      51 .      0.0/      1.1 .       0/       0
   6  JOB003            1.22 .       0/      43 .      0.0/      1.1 .       0/       0
  - - - - - - - - - - - - - - - - - - - - - - - - - - - - - - - - - - - - - - - - - - -
   *  TOTAL             5.40 .     322/   10536 .      2.3/   2554.9 .       0/       0
  - - - - - - - - - - - - - - - - - - - - - - - - - - - - - - - - - - - - - - - - - - -
 
  II. I/O Access Patterns
  - - - - - - - - - - - - - - - - - - - -
  Unit  Name               % of random
                         Write/Read calls
  - - - - - - - - - - - - - - - - - - - -
   1  ANNI                 0.0/   0.0
   2  RUNFILE             28.6/  10.8
   3  ONEINT               0.0/  97.6
   4  JOB001               0.0/  65.1
   5  JOB002               0.0/  74.5
   6  JOB003               0.0/  79.1
  - - - - - - - - - - - - - - - - - - - -
--
--- Stop Module: rassi at Fri Mar 22 14:31:22 2024 /rc=_RC_ALL_IS_WELL_ ---
--- Module rassi spent 4 seconds ---

.##################.
.# Happy landing! #.
.##################.

    Timing: Wall=33.81 User=29.06 System=4.37
