   This run of MOLCAS is using the pymolcas driver

                             OPE
                             OPE          NMOL  CASOP  ENMOLC A   SO
                 OPE        NMOLC        AS  OP EN  MO LC     AS  OP
                OPENM       OL CA        SO  PE NM  OL CA     SOP EN
                OP EN      MO   LC       AS  OP ENMOL  CASO   PENMOL
                OP  EN     MO   LC       AS  OP EN     MO     LC ASO
               OP   E  NMOL  C  AS       OP  EN MO     LC     AS  OP
               OP  E   NMO   LC AS        OPEN  MO     LCASOP EN   M
               O  PEN   MO  LCA  SO
            OPE   NMO   L   CAS    OP
        OPENMOL  CASOP     ENMOL   CASOPE
     OPENMOLCA   SOPENMOLCASOPEN   MOLCASOPE
    OPENMOLCAS   OP           EN   MOL    CAS
    OPENMOLCAS       OP  ENM        O     LCA
    OPENMOLCAS    OPEN  MOLCASO     P  E  NMO
    OPENMOLCAS     OP               E  N  MOL
    OPENMOLCA   SO           PENM   O  L  CAS    OPEN    MO    LCAS
    OPENMOLCA   SOP           ENM   O  L  CAS   OP  EN  MOLC  AS   O
    OPENMOLCA   SOPE           NM      O  LCA   S      OP  EN MO
    OPENMOLC                AS         O  PEN   M      OL  CA  SOPE
    OPENMO        LCASOPE  NMOL        C  ASO   P      ENMOLC     AS
    OPE     NMO      LCA  SO     P     E   NM   OL  CA SO  PE N   MO
          OPENMOLCA            SOPE   NMO        LCAS  O    P  ENMO
     OPENMOLCASOPENMOLCASOPENMOLCASOPENMOLCA
        OPENMOLCASOPENMOLCASOPENMOLCASOPE
            OPENMOLCASOPENMOLCASOPENM
               OPENMOLCASOPENMOLCA        version: v23.10
                   OPENMOLCASO
                       OPE                tag:

 OpenMolcas is free software; you can redistribute it and/or modify it
 under the terms of the GNU Lesser General Public License version 2.1.
 OpenMolcas is distributed in the hope that it will be useful, but it
 is provided "as is" and without any express or implied warranties.
 For more details see the full text of the license in the file
 LICENSE or in <http://www.gnu.org/licenses/>.

                 Copyright (C) The OpenMolcas Authors
           For the author list and the recommended citation,
                   consult the file CONTRIBUTORS.md

           *************************************************
           * pymolcas version py2.25                       *
           *   build 2b27fa14244bdc32cb1957e6230cd793      *
           *   (after the EMIL interpreter by V. Veryazov) *
           *************************************************

configuration info
------------------
Host name: manganese.itc.univie.ac.at (Linux)
C Compiler ID: Clang
C flags: -std=gnu99
Fortran Compiler ID: Intel
Fortran flags: -fpp -i8 -heap-arrays
Definitions: _MOLCAS_;_I8_;_LINUX_
Parallel: OFF (GA=OFF)


   ---------------------------------------------------------------------------
  |
  |           Project: MOLCAS
  |    Submitted from: /public/manganese/scratch/tmp/sascha.925337/WORK/master
  |      Scratch area: /public/manganese/scratch/tmp/sascha.925337/WORK/master
  |   Save outputs to: WORKDIR
  |            Molcas: /usr/license/openmolcas/v23.10
  |
  | Scratch area is NOT empty
  |
  |        MOLCASMEM = 10000
  |    MOLCAS_DRIVER = /usr/license/openmolcas/v23.10/pymolcas
  |    MOLCAS_NPROCS = 1
  |    MOLCAS_SOURCE = /usr/license/openmolcas/v23.10
  | MOLCAS_STRUCTURE = 0
  |
   ---------------------------------------------------------------------------

++ ---------   Input file   ---------

&GATEWAY
COORD=MOLCAS.xyz
GROUP=NOSYM
BASIS=cc-pvdz
AMFI
angmom
0 0 0
BASLIB
/user/sascha/development/eci/sharc_main/examples/SHARC_MOLCAS/basisset

RICD
CDTHreshold=0.0001

&SEWARD

&RASSCF
SPIN=1
NACTEL=8 0 0
INACTIVE=5
RAS2=6
ITERATIONS=200,100
CIROOT=6 6 1
THRS=0.000000010000 0.000100000000 0.000100000000

>>> COPY MOLCAS.rasscf.molden MOLCAS.1.molden

&CASPT2
SHIFT=0.0
IMAGINARY= 0.000
IPEASHIFT= 0.00
MAXITER=120
MULTISTATE= 6 1 2 3 4 5 6
OUTPUT=BRIEF
PRWF=0.1

>>> COPY MOLCAS.JobMix MOLCAS.1.JobIph

&RASSCF
SPIN=2
NACTEL=7 0 0
INACTIVE=5
RAS2=6
ITERATIONS=200,100
CIROOT=2 2 1
THRS=0.000000010000 0.000100000000 0.000100000000

>>> COPY MOLCAS.rasscf.molden MOLCAS.2.molden

&CASPT2
SHIFT=0.0
IMAGINARY= 0.000
IPEASHIFT= 0.00
MAXITER=120
MULTISTATE= 2 1 2
OUTPUT=BRIEF
PRWF=0.1

>>> COPY MOLCAS.JobMix MOLCAS.2.JobIph

&RASSCF
SPIN=3
NACTEL=8 0 0
INACTIVE=5
RAS2=6
ITERATIONS=200,100
CIROOT=1 1 1
THRS=0.000000010000 0.000100000000 0.000100000000

>>> COPY MOLCAS.rasscf.molden MOLCAS.3.molden

&CASPT2
SHIFT=0.0
IMAGINARY= 0.000
IPEASHIFT= 0.00
MAXITER=120
MULTISTATE= 1 1
OUTPUT=BRIEF
PRWF=0.1

>>> COPY MOLCAS.JobMix MOLCAS.3.JobIph

>>> COPY MOLCAS.1.JobIph JOB001

&RASSI
NROFJOBIPHS
1 6
1 2 3 4 5 6
MEIN
EJOB

>>> COPY MOLCAS.rassi.h5 MOLCAS.rassi.1.h5

>>> COPY MOLCAS.2.JobIph JOB001

&RASSI
NROFJOBIPHS
1 2
1 2
MEIN
EJOB

>>> COPY MOLCAS.rassi.h5 MOLCAS.rassi.2.h5

>>> COPY MOLCAS.3.JobIph JOB001

&RASSI
NROFJOBIPHS
1 1
1
MEIN
EJOB

>>> COPY MOLCAS.rassi.h5 MOLCAS.rassi.3.h5

>>> COPY MOLCAS.1.JobIph JOB001

>>> COPY MOLCAS.2.JobIph JOB002

>>> COPY MOLCAS.3.JobIph JOB003

&RASSI
NROFJOBIPHS
3 6 2 1
1 2 3 4 5 6
1 2
1
MEIN
EJOB
SPINORBIT
SOCOUPLING=0.0d0
EJOB

-- ----------------------------------

--- Start Module: gateway at Thu Mar 21 14:57:37 2024 ---
 
()()()()()()()()()()()()()()()()()()()()()()()()()()()()()()()()()()()()()()()()()()()()()()()()()()

                                              &GATEWAY

                                   only a single process is used
                       available to each process: 10 GB of memory, 1 thread?
                                            pid: 1515326
()()()()()()()()()()()()()()()()()()()()()()()()()()()()()()()()()()()()()()()()()()()()()()()()()()
 
 
 
 Basis Set     1 Label: S.CC-PVDZ
 Basis set is read from library:/user/sascha/development/eci/sharc_main/examples/SHARC_MOLCAS/basisset 
 
 
 Basis Set     2 Label: H.CC-PVDZ
 Basis set is read from library:/user/sascha/development/eci/sharc_main/examples/SHARC_MOLCAS/basisset 
 
++    Symmetry information:
      ---------------------
 
                    Character Table for C1 
 
                             E  
                    a        1  x, y, xy, Rz, z, xz, Ry, yz, Rx, I
--
 
 
++    Basis set information:
      ----------------------
 
 
      Basis set label: S.CC-PVDZ.........
 
      Electronic valence basis set:
      ------------------
      Associated Effective Charge  16.000000 au
      Associated Actual Charge     16.000000 au
      Nuclear Model: Point charge
 
      Shell  nPrim  nBasis  Cartesian Spherical Contaminant
         s      12       4        X                  
         p       8       3        X                  
         d       1       1                 X         
 
 
      Basis set label: H.CC-PVDZ.........
 
      Electronic valence basis set:
      ------------------
      Associated Effective Charge   1.000000 au
      Associated Actual Charge      1.000000 au
      Nuclear Model: Point charge
 
      Shell  nPrim  nBasis  Cartesian Spherical Contaminant
         s       4       2        X                  
         p       1       1        X                  
--
 
 
++    Molecular structure info:
      -------------------------
 
                    ************************************************ 
                    **** Cartesian Coordinates / Bohr, Angstrom **** 
                    ************************************************ 
 
     Center  Label                x              y              z                     x              y              z
        1      S1               0.000000       0.000000       0.001589              0.000000       0.000000       0.000841
        2      H2               0.000000       1.842103       2.235421              0.000000       0.974799       1.182934
        3      H3               0.000000      -1.842103       2.235421              0.000000      -0.974799       1.182934
 
                    *************************************** 
                    *    InterNuclear Distances / Bohr    * 
                    *************************************** 
 
               1 S1            2 H2            3 H3    
    1 S1       0.000000
    2 H2       2.895401        0.000000
    3 H3       2.895401        3.684206        0.000000
 
                    ******************************************* 
                    *    InterNuclear Distances / Angstrom    * 
                    ******************************************* 
 
               1 S1            2 H2            3 H3    
    1 S1       0.000000
    2 H2       1.532180        0.000000
    3 H3       1.532180        1.949598        0.000000
 
                    ************************************** 
                    *    Valence Bond Angles / Degree    * 
                    ************************************** 
                          Atom centers                 Phi
                      2 H2       1 S1       3 H3        79.02
--
 
 
            Nuclear Potential Energy             11.32343694 au
 
--- Stop Module: gateway at Thu Mar 21 14:57:37 2024 /rc=_RC_ALL_IS_WELL_ ---

--- Start Module: seward at Thu Mar 21 14:57:37 2024 ---
 
()()()()()()()()()()()()()()()()()()()()()()()()()()()()()()()()()()()()()()()()()()()()()()()()()()

                                              &SEWARD

                                   only a single process is used
                       available to each process: 10 GB of memory, 1 thread?
                                            pid: 1515329
()()()()()()()()()()()()()()()()()()()()()()()()()()()()()()()()()()()()()()()()()()()()()()()()()()
 
               SEWARD will generate:
                  Multipole Moment integrals up to order  2
                  Kinetic Energy integrals
                  Nuclear Attraction integrals (point charge)
                  One-Electron Hamiltonian integrals
                  Velocity integrals
                  Orbital angular momentum around ( 0.0000  0.0000  0.0000 )
                  Velocity quadrupole around ( 0.0000  0.0000  0.1341 )
                  Atomic mean-field integrals
                  RI decomposed two-electron repulsion integrals stored Cholesky style
                   - acCD auxiliary basis
                   - CD Threshold:   0.10E-03
 
                   Integrals are discarded if absolute value <: 0.10E-13
                   Integral cutoff threshold is set to       <: 0.10E-15
 
            Nuclear Potential Energy             11.32343694 au
 
 
      Basis set specifications :
      Symmetry species         a  
      Basis functions           28
 
 
      Input file to MOLDEN was generated!
 
--- Stop Module: seward at Thu Mar 21 14:57:38 2024 /rc=_RC_ALL_IS_WELL_ ---

*** symbolic link created: INPORB -> MOLCAS.GssOrb
--- Start Module: rasscf at Thu Mar 21 14:57:38 2024 ---
 
()()()()()()()()()()()()()()()()()()()()()()()()()()()()()()()()()()()()()()()()()()()()()()()()()()

                                              &RASSCF

                                   only a single process is used
                       available to each process: 10 GB of memory, 1 thread?
                                            pid: 1515332
()()()()()()()()()()()()()()()()()()()()()()()()()()()()()()()()()()()()()()()()()()()()()()()()()()
 
 
      Header of the ONEINT file:
      --------------------------
      
      Integrals generated by Gateway/Seward, Thu Mar 21 14:57:37 2024
 
 
      OrdInt status: non-squared
 
 
      Cartesian coordinates in Angstrom:
      -----------------------------------------------------
      No.  Label        X            Y            Z        
      -----------------------------------------------------
       1   S1         0.00000000   0.00000000   0.00084100
       2   H2         0.00000000   0.97479900   1.18293400
       3   H3         0.00000000  -0.97479900   1.18293400
      -----------------------------------------------------
      Nuclear repulsion energy =   11.32343694
 
++    Wave function specifications:
      -----------------------------
 
      Number of closed shell electrons          10
      Number of electrons in active shells       8
      Max number of holes in RAS1 space          0
      Max nr of electrons in RAS3 space          0
      Number of inactive orbitals                5
      Number of active orbitals                  6
      Number of secondary orbitals              17
      Spin quantum number                      0.0
      State symmetry                             1
--
 
++    Orbital specifications:
      -----------------------
 
      Symmetry species                           1
                                                 a
      Frozen orbitals                            0
      Inactive orbitals                          5
      Active orbitals                            6
      RAS1 orbitals                              0
      RAS2 orbitals                              6
      RAS3 orbitals                              0
      Secondary orbitals                        17
      Deleted orbitals                           0
      Number of basis functions                 28
--
 
++    CI expansion specifications:
      ----------------------------
 
      Number of CSFs                           105
      Number of determinants                   120
      Number of root(s) required                 6
      Root chosen for geometry opt.              6
      CI roots used                              1     2     3     4     5     6
      weights                                0.167 0.167 0.167 0.167 0.167 0.167
      highest root included in the CI            6
      max. size of the explicit Hamiltonian    105
--
 
++    Optimization specifications:
      ----------------------------
 
      RASSCF algorithm: LK RI/DF
      Maximum number of macro iterations       200
      Maximum number of SX iterations          100
      Threshold for RASSCF energy            0.100E-07
      Threshold for max MO rotation          0.100E-03
      Threshold for max BLB element          0.100E-03
      Level shift parameter                  0.500E+00
      Make Quasi-Newton update
--
 
      Orbitals from runfile: guessorb orbitals
      The MO-coefficients are taken from guessorb on runfile
 
      Total molecular charge    0.00
 
      ************************************************************************************************************************
      *                                                                                                                      *
      *                                            Wave function control section                                             *
      *                                                                                                                      *
      ************************************************************************************************************************
 
 
                                         RASSCF iterations: Energy and convergence statistics
                                         ----------------------------------------------------
 
      Iter CI   SX   CI       RASSCF       Energy    max ROT     max BLB   max BLB  Level Ln srch  Step   QN   Walltime
          iter iter root      energy       change     param      element    value   shift minimum  type update hh:mm:ss
 Nr of preliminary CI iterations:   1
        1   1   66    0  -398.36477083    0.00E+00   0.17E+00*   7  18 1  0.15E+00*  0.00   0.00    SX    NO    0:00:00
        2   1   17    0  -398.43697329   -0.72E-01* -0.70E-01*   6  13 1  0.27E-01*  0.00   0.00    SX    NO    0:00:00
        3   1   15    0  -398.44230286   -0.53E-02*  0.27E-01*  11  13 1 -0.92E-02*  0.00   0.00    SX    NO    0:00:00
        4   1   14    0  -398.44296396   -0.66E-03*  0.12E-01*  11  13 1 -0.38E-02*  0.00   0.00    SX    NO    0:00:00
        5   1   14    0  -398.44306803   -0.10E-03*  0.79E-02*  11  13 1 -0.16E-02*  0.00   1.69    LS   YES    0:00:00
        6   1   11    0  -398.44308867   -0.21E-04*  0.42E-03*   9  25 1  0.35E-03*  0.00   1.02    QN   YES    0:00:00
        7   1   10    0  -398.44308901   -0.34E-06*  0.11E-03*   7  12 1  0.53E-04   0.00   1.15    QN   YES    0:00:00
        8   1    6    0  -398.44308903   -0.20E-07*  0.19E-04   11  14 1  0.70E-05   0.00   1.06    QN   YES    0:00:00
        9   1    5    0  -398.44308903   -0.33E-09   0.48E-05    6  13 1  0.23E-05   0.00   1.27    QN   YES    0:00:00
      Convergence after  9 iterations
       10   1    5    0  -398.44308903   -0.16E-10   0.48E-05    9  15 1  0.26E-06   0.00   1.27    QN   YES    0:00:00
 
      ************************************************************************************************************************
                                                      Wave function printout:
                       occupation of active orbitals, and spin coupling of open shells (u,d: Spin up or down)
      ************************************************************************************************************************
 
      Note: transformation to natural orbitals
      has been made, which may change the order of the CSFs.
 
      printout of CI-coefficients larger than  0.05 for root  1
      energy=    -398.691538
      conf/sym  111111     Coeff  Weight
             1  222200  -0.97171 0.94422
             9  22u20d   0.08307 0.00690
            15  2u22d0   0.10924 0.01193
            31  220220   0.07716 0.00595
            34  220202   0.05745 0.00330
            38  2ud2ud   0.10920 0.01192
            49  202220   0.09391 0.00882
 
      printout of CI-coefficients larger than  0.05 for root  2
      energy=    -398.508200
      conf/sym  111111     Coeff  Weight
             2  222ud0   0.97539 0.95140
            10  22udud   0.10906 0.01189
            11  22uudd  -0.06609 0.00437
            16  2u2d20   0.08872 0.00787
            21  2u2d02   0.07661 0.00587
            26  u22dud   0.06186 0.00383
            35  220ud2  -0.06540 0.00428
            39  2udu2d  -0.07174 0.00515
 
      printout of CI-coefficients larger than  0.05 for root  3
      energy=    -398.478575
      conf/sym  111111     Coeff  Weight
             4  222u0d  -0.96184 0.92514
             8  22ud20  -0.11302 0.01277
            13  22ud02  -0.06602 0.00436
            18  2u2dud  -0.16520 0.02729
            29  u22d02  -0.05497 0.00302
            33  220u2d  -0.06937 0.00481
            41  2udud2  -0.07864 0.00618
            51  202u2d  -0.10588 0.01121
 
      printout of CI-coefficients larger than  0.05 for root  4
      energy=    -398.351924
      conf/sym  111111     Coeff  Weight
             3  222020   0.07944 0.00631
             9  22u20d  -0.74345 0.55272
            15  2u22d0   0.59730 0.35677
            25  u2220d   0.05304 0.00281
            31  220220  -0.17634 0.03110
            38  2ud2ud  -0.05383 0.00290
            43  u2d220  -0.07936 0.00630
            46  u2d202   0.05187 0.00269
            49  202220  -0.06216 0.00386
            52  202202   0.13930 0.01940
            56  ud22ud   0.06234 0.00389
 
      printout of CI-coefficients larger than  0.05 for root  5
      energy=    -398.345878
      conf/sym  111111     Coeff  Weight
             7  22u2d0   0.67353 0.45365
            17  2u220d  -0.67543 0.45621
            32  2202ud   0.13691 0.01875
            37  2ud220  -0.14811 0.02194
            40  2ud202   0.15180 0.02304
            50  2022ud  -0.10075 0.01015
            55  ud2220  -0.07399 0.00547
            76  2u022d   0.05466 0.00299
 
      printout of CI-coefficients larger than  0.05 for root  6
      energy=    -398.282419
      conf/sym  111111     Coeff  Weight
             7  22u2d0   0.69812 0.48737
            17  2u220d   0.69811 0.48736
            32  2202ud   0.05682 0.00323
            44  u2d2ud  -0.07321 0.00536
            55  ud2220  -0.07082 0.00502
            76  2u022d  -0.07051 0.00497
 
      Natural orbitals and occupation numbers for root  1
      sym 1:   1.997304   1.961193   1.964608   1.998624   0.048336   0.029935
 
      Natural orbitals and occupation numbers for root  2
      sym 1:   1.998912   1.986432   1.961516   1.000000   0.999157   0.053982
 
      Natural orbitals and occupation numbers for root  3
      sym 1:   1.998795   1.940168   1.971877   1.000000   0.096915   0.992244
 
      Natural orbitals and occupation numbers for root  4
      sym 1:   1.977020   1.582919   1.363576   1.983678   0.471470   0.621338
 
      Natural orbitals and occupation numbers for root  5
      sym 1:   1.992380   1.465189   1.450376   1.997413   0.550774   0.543869
 
      Natural orbitals and occupation numbers for root  6
      sym 1:   1.990636   1.498251   1.485250   1.998508   0.523339   0.504015
 
      ************************************************************************************************************************
      *                                                                                                                      *
      *                                                    Final results                                                     *
      *                                                                                                                      *
      ************************************************************************************************************************
 
 
++    Wave function specifications:
      -----------------------------
 
      Number of closed shell electrons          10
      Number of electrons in active shells       8
      Max number of holes in RAS1 space          0
      Max nr of electrons in RAS3 space          0
      Number of inactive orbitals                5
      Number of active orbitals                  6
      Number of secondary orbitals              17
      Spin quantum number                      0.0
      State symmetry                             1
--
 
++    Orbital specifications:
      -----------------------
 
      Symmetry species                           1
                                                 a
      Frozen orbitals                            0
      Inactive orbitals                          5
      Active orbitals                            6
      RAS1 orbitals                              0
      RAS2 orbitals                              6
      RAS3 orbitals                              0
      Secondary orbitals                        17
      Deleted orbitals                           0
      Number of basis functions                 28
--
 
++    CI expansion specifications:
      ----------------------------
 
      Number of CSFs                           105
      Number of determinants                   120
      Number of root(s) required                 6
      CI roots used                              1     2     3     4     5     6
      weights                                0.167 0.167 0.167 0.167 0.167 0.167
      highest root included in the CI            6
      Root passed to geometry opt.               6
--
 
++    Final optimization conditions:
      ------------------------------
 
      Average CI energy                            -398.44308903
      RASSCF energy for state  6                   -398.28241941
      Super-CI energy                                -0.00000000
      RASSCF energy change                           -0.00000000
      Max change in MO coefficients              -0.396E-05
      Max non-diagonal density matrix element     0.476E-05
      Maximum BLB matrix element                  0.257E-06
      (orbital pair   9,  15 in symmetry   1)
      Norm of electronic gradient            0.933E-01
--
 
 
      Final state energy(ies):
      ------------------------
 
::    RASSCF root number  1 Total energy:   -398.69153830
::    RASSCF root number  2 Total energy:   -398.50819964
::    RASSCF root number  3 Total energy:   -398.47857529
::    RASSCF root number  4 Total energy:   -398.35192376
::    RASSCF root number  5 Total energy:   -398.34587777
::    RASSCF root number  6 Total energy:   -398.28241941
 
++    Molecular orbitals:
      -------------------
 
      Pseudonatural active orbitals and approximate occupation numbers
 
 
 
 
      Molecular orbitals for symmetry species 1: a  
 
 
      Orbital                 1         2         3         4         5         6         7         8         9        10
      Energy           -92.0134   -9.0136   -6.6934   -6.6932   -6.6914   -0.9183    0.0000    0.0000    0.0011   -0.0000
      Occ. No.           2.0000    2.0000    2.0000    2.0000    2.0000    1.9891    1.7355    1.6993    1.6630    0.4519
 
     1 S1     1s         1.0000    0.0002    0.0000    0.0000   -0.0000    0.0008    0.0000    0.0011    0.0000   -0.0000
     2 S1     2s         0.0001    1.0012   -0.0024   -0.0000   -0.0000    0.0061    0.0000    0.0030    0.0000   -0.0000
     3 S1     3s         0.0003    0.0016    0.0023    0.0000    0.0000    0.9302   -0.0000   -0.3234    0.0000    0.0000
     4 S1     *s        -0.0002   -0.0049   -0.0013   -0.0000    0.0000   -0.0461   -0.0000   -0.1076   -0.0000    0.0000
     5 S1     2px       -0.0000    0.0000    0.0000   -0.0000    0.9999   -0.0000   -0.0000    0.0000   -0.0028   -0.0000
     6 S1     3px       -0.0000    0.0000   -0.0000    0.0000   -0.0005    0.0000   -0.0000   -0.0000    0.9732   -0.0000
     7 S1     *px        0.0000   -0.0000    0.0000   -0.0000    0.0009   -0.0000    0.0000   -0.0000    0.0249    0.0000
     8 S1     2py        0.0000    0.0000   -0.0000    1.0000    0.0000   -0.0000   -0.0062    0.0000   -0.0000    0.0058
     9 S1     3py        0.0000    0.0000   -0.0000    0.0013    0.0000   -0.0000    0.7501   -0.0000   -0.0000    0.7027
    10 S1     *py       -0.0000   -0.0000    0.0000   -0.0007   -0.0000    0.0000   -0.0927    0.0000    0.0000    0.3131
    11 S1     2pz        0.0000    0.0030    1.0000    0.0000   -0.0000   -0.0048   -0.0000   -0.0078    0.0000    0.0000
    12 S1     3pz        0.0001    0.0017    0.0015    0.0000   -0.0000    0.1042    0.0000    0.7628    0.0000    0.0000
    13 S1     *pz       -0.0001   -0.0030   -0.0007   -0.0000    0.0000   -0.0336   -0.0000   -0.0698   -0.0000    0.0000
    14 S1     *d2-       0.0000   -0.0000   -0.0000    0.0000    0.0000    0.0000    0.0000    0.0000    0.0000   -0.0000
    15 S1     *d1-       0.0000    0.0000    0.0000    0.0004    0.0000   -0.0000    0.0644   -0.0000   -0.0000   -0.1018
    16 S1     *d0        0.0000    0.0001    0.0003   -0.0000    0.0000    0.0088    0.0000    0.0292    0.0000   -0.0000
    17 S1     *d1+      -0.0000   -0.0000    0.0000   -0.0000    0.0002   -0.0000    0.0000    0.0000    0.0171    0.0000
    18 S1     *d2+      -0.0000   -0.0001   -0.0001   -0.0000    0.0000   -0.0077   -0.0000   -0.0191   -0.0000    0.0000
    19 H2     1s         0.0000   -0.0007    0.0010    0.0005   -0.0000    0.2191    0.4549    0.3789    0.0000   -0.5657
    20 H2     *s         0.0001    0.0021   -0.0003   -0.0001   -0.0000   -0.0927   -0.0874   -0.0901   -0.0000   -0.3835
    21 H2     *px        0.0000    0.0000    0.0000   -0.0000    0.0000   -0.0000    0.0000   -0.0000    0.0143    0.0000
    22 H2     *py        0.0000    0.0004   -0.0000   -0.0000    0.0000   -0.0130   -0.0075   -0.0180    0.0000    0.0024
    23 H2     *pz        0.0000    0.0005   -0.0001   -0.0000    0.0000   -0.0138   -0.0208   -0.0076    0.0000   -0.0094
    24 H3     1s         0.0000   -0.0007    0.0010   -0.0005   -0.0000    0.2191   -0.4549    0.3789    0.0000    0.5657
    25 H3     *s         0.0001    0.0021   -0.0003    0.0001    0.0000   -0.0927    0.0874   -0.0901    0.0000    0.3835
    26 H3     *px        0.0000    0.0000   -0.0000   -0.0000    0.0000    0.0000   -0.0000    0.0000    0.0143    0.0000
    27 H3     *py       -0.0000   -0.0004    0.0000   -0.0000    0.0000    0.0130   -0.0075    0.0180    0.0000    0.0024
    28 H3     *pz        0.0000    0.0005   -0.0001    0.0000    0.0000   -0.0138    0.0208   -0.0076   -0.0000    0.0094
 
 
      Orbital                11
      Energy             0.0099
      Occ. No.           0.4613
 
     1 S1     1s         0.0062
     2 S1     2s         0.0324
     3 S1     3s        -0.3069
     4 S1     *s        -0.6163
     5 S1     2px       -0.0000
     6 S1     3px       -0.0000
     7 S1     *px        0.0000
     8 S1     2py        0.0000
     9 S1     3py        0.0000
    10 S1     *py        0.0000
    11 S1     2pz       -0.0107
    12 S1     3pz       -0.6760
    13 S1     *pz       -0.3466
    14 S1     *d2-      -0.0000
    15 S1     *d1-      -0.0000
    16 S1     *d0        0.0229
    17 S1     *d1+       0.0000
    18 S1     *d2+      -0.0180
    19 H2     1s         0.4166
    20 H2     *s         0.5390
    21 H2     *px        0.0000
    22 H2     *py        0.0064
    23 H2     *pz        0.0125
    24 H3     1s         0.4166
    25 H3     *s         0.5390
    26 H3     *px        0.0000
    27 H3     *py       -0.0064
    28 H3     *pz        0.0125
--
 
      Von Neumann Entropy (Root   1) =  0.27649
 

      Mulliken population analysis for root number:  1
      -----------------------------------------------
 
 
++    Molecular charges:
      ------------------
 
      Mulliken charges per centre and basis function type
      ---------------------------------------------------
 
                S1      H2      H3    
      1s       2.0000  1.1055  1.1055
      2s       2.0025  0.0000  0.0000
      2px      1.9998  0.0000  0.0000
      2pz      2.0001  0.0000  0.0000
      2py      2.0001  0.0000  0.0000
      3s       1.9412  0.0000  0.0000
      3px      1.9441  0.0000  0.0000
      3pz      1.3253  0.0000  0.0000
      3py      1.2057  0.0000  0.0000
      *s      -0.0665 -0.1819 -0.1819
      *px      0.0449  0.0045  0.0045
      *pz     -0.1614  0.0111  0.0111
      *py     -0.1816  0.0083  0.0083
      *d2+     0.0040  0.0000  0.0000
      *d1+     0.0007  0.0000  0.0000
      *d0      0.0072  0.0000  0.0000
      *d1-     0.0389  0.0000  0.0000
      *d2-     0.0000  0.0000  0.0000
      Total   16.1051  0.9475  0.9475
 
      N-E     -0.1051  0.0525  0.0525
 
      Total electronic charge=   18.000000
 
      Total            charge=   -0.000000
--
 
 

      Expectation values of various properties for root number:  1
      -----------------------------------------------------------
 
 
++    Molecular properties:
      ---------------------
 
      Charge (e):
                      =   -0.0000
      Dipole Moment (Debye):
      Origin of the operator (Ang)=    0.0000    0.0000    0.0000
                   X=  5.6145E-12               Y=  3.4331E-10               Z=  9.1922E-01           Total=  9.1922E-01
      Quadrupole Moment (Debye*Ang):
      Origin of the operator (Ang)=    0.0000    0.0000    0.0709
                  XX= -1.6707E+01              XY= -2.1683E-12              XZ=  1.7288E-12              YY= -1.3273E+01
                  YZ= -8.2464E-10              ZZ= -1.3041E+01
      In traceless form (Debye*Ang)
                  XX= -3.5495E+00              XY= -3.2525E-12              XZ=  2.5933E-12              YY=  1.6005E+00
                  YZ= -1.2370E-09              ZZ=  1.9490E+00
--
 
      Von Neumann Entropy (Root   2) =  1.17888
 

      Mulliken population analysis for root number:  2
      -----------------------------------------------
 
 
++    Molecular charges:
      ------------------
 
      Mulliken charges per centre and basis function type
      ---------------------------------------------------
 
                S1      H2      H3    
      1s       2.0000  1.1602  1.1602
      2s       2.0025  0.0000  0.0000
      2px      1.9998  0.0000  0.0000
      2pz      2.0001  0.0000  0.0000
      2py      2.0001  0.0000  0.0000
      3s       1.9513  0.0000  0.0000
      3px      0.9727  0.0000  0.0000
      3pz      1.4150  0.0000  0.0000
      3py      1.7236  0.0000  0.0000
      *s      -0.0492 -0.1498 -0.1498
      *px      0.0225  0.0023  0.0023
      *pz     -0.1321  0.0144  0.0144
      *py     -0.0557  0.0088  0.0088
      *d2+     0.0036  0.0000  0.0000
      *d1+     0.0004  0.0000  0.0000
      *d0      0.0066  0.0000  0.0000
      *d1-     0.0669  0.0000  0.0000
      *d2-     0.0000  0.0000  0.0000
      Total   15.9281  1.0359  1.0359
 
      N-E      0.0719 -0.0359 -0.0359
 
      Total electronic charge=   18.000000
 
      Total            charge=   -0.000000
--
 
 

      Expectation values of various properties for root number:  2
      -----------------------------------------------------------
 
 
++    Molecular properties:
      ---------------------
 
      Charge (e):
                      =   -0.0000
      Dipole Moment (Debye):
      Origin of the operator (Ang)=    0.0000    0.0000    0.0000
                   X= -2.7448E-12               Y=  1.7311E-08               Z= -1.9428E-02           Total=  1.9428E-02
      Quadrupole Moment (Debye*Ang):
      Origin of the operator (Ang)=    0.0000    0.0000    0.0709
                  XX= -1.4008E+01              XY=  1.7300E-11              XZ= -5.0708E-12              YY= -1.6871E+01
                  YZ=  4.0388E-08              ZZ= -1.6417E+01
      In traceless form (Debye*Ang)
                  XX=  2.6359E+00              XY=  2.5949E-11              XZ= -7.6062E-12              YY= -1.6591E+00
                  YZ=  6.0581E-08              ZZ= -9.7683E-01
--
 
      Von Neumann Entropy (Root   3) =  1.27683
 

      Mulliken population analysis for root number:  3
      -----------------------------------------------
 
 
++    Molecular charges:
      ------------------
 
      Mulliken charges per centre and basis function type
      ---------------------------------------------------
 
                S1      H2      H3    
      1s       2.0000  1.1049  1.1049
      2s       2.0024  0.0000  0.0000
      2px      1.9998  0.0000  0.0000
      2pz      2.0001  0.0000  0.0000
      2py      2.0001  0.0000  0.0000
      3s       1.9770  0.0000  0.0000
      3px      0.9727  0.0000  0.0000
      3pz      1.6999  0.0000  0.0000
      3py      1.3751  0.0000  0.0000
      *s      -0.0752 -0.0416 -0.0416
      *px      0.0225  0.0023  0.0023
      *pz     -0.0706  0.0157  0.0157
      *py     -0.1347  0.0109  0.0109
      *d2+     0.0054  0.0000  0.0000
      *d1+     0.0004  0.0000  0.0000
      *d0      0.0091  0.0000  0.0000
      *d1-     0.0316  0.0000  0.0000
      *d2-     0.0000  0.0000  0.0000
      Total   15.8158  1.0921  1.0921
 
      N-E      0.1842 -0.0921 -0.0921
 
      Total electronic charge=   18.000000
 
      Total            charge=   -0.000000
--
 
 

      Expectation values of various properties for root number:  3
      -----------------------------------------------------------
 
 
++    Molecular properties:
      ---------------------
 
      Charge (e):
                      =   -0.0000
      Dipole Moment (Debye):
      Origin of the operator (Ang)=    0.0000    0.0000    0.0000
                   X= -2.0421E-12               Y= -3.7891E-10               Z= -1.1945E+00           Total=  1.1945E+00
      Quadrupole Moment (Debye*Ang):
      Origin of the operator (Ang)=    0.0000    0.0000    0.0709
                  XX= -1.4459E+01              XY= -2.6770E-12              XZ= -4.0199E-12              YY= -1.6936E+01
                  YZ= -1.4146E-08              ZZ= -1.8846E+01
      In traceless form (Debye*Ang)
                  XX=  3.4315E+00              XY= -4.0155E-12              XZ= -6.0299E-12              YY= -2.8333E-01
                  YZ= -2.1219E-08              ZZ= -3.1481E+00
--
 
      Von Neumann Entropy (Root   4) =  1.68742
 

      Mulliken population analysis for root number:  4
      -----------------------------------------------
 
 
++    Molecular charges:
      ------------------
 
      Mulliken charges per centre and basis function type
      ---------------------------------------------------
 
                S1      H2      H3    
      1s       2.0000  1.0040  1.0040
      2s       2.0024  0.0000  0.0000
      2px      1.9998  0.0000  0.0000
      2pz      2.0001  0.0000  0.0000
      2py      2.0001  0.0000  0.0000
      3s       1.8808  0.0000  0.0000
      3px      1.9296  0.0000  0.0000
      3pz      1.1374  0.0000  0.0000
      3py      1.2049  0.0000  0.0000
      *s      -0.0875 -0.0327 -0.0327
      *px      0.0445  0.0045  0.0045
      *pz     -0.0730  0.0133  0.0133
      *py     -0.0893  0.0084  0.0084
      *d2+     0.0040  0.0000  0.0000
      *d1+     0.0007  0.0000  0.0000
      *d0      0.0068  0.0000  0.0000
      *d1-     0.0437  0.0000  0.0000
      *d2-     0.0000  0.0000  0.0000
      Total   16.0051  0.9974  0.9974
 
      N-E     -0.0051  0.0026  0.0026
 
      Total electronic charge=   18.000000
 
      Total            charge=   -0.000000
--
 
 

      Expectation values of various properties for root number:  4
      -----------------------------------------------------------
 
 
++    Molecular properties:
      ---------------------
 
      Charge (e):
                      =   -0.0000
      Dipole Moment (Debye):
      Origin of the operator (Ang)=    0.0000    0.0000    0.0000
                   X=  8.6631E-12               Y=  1.0262E-07               Z= -3.7520E-01           Total=  3.7520E-01
      Quadrupole Moment (Debye*Ang):
      Origin of the operator (Ang)=    0.0000    0.0000    0.0709
                  XX= -1.7069E+01              XY= -3.0652E-12              XZ= -1.8451E-12              YY= -1.5655E+01
                  YZ=  2.7771E-07              ZZ= -1.5962E+01
      In traceless form (Debye*Ang)
                  XX= -1.2610E+00              XY= -4.5978E-12              XZ= -2.7676E-12              YY=  8.6085E-01
                  YZ=  4.1656E-07              ZZ=  4.0018E-01
--
 
      Von Neumann Entropy (Root   5) =  1.69562
 

      Mulliken population analysis for root number:  5
      -----------------------------------------------
 
 
++    Molecular charges:
      ------------------
 
      Mulliken charges per centre and basis function type
      ---------------------------------------------------
 
                S1      H2      H3    
      1s       2.0000  0.9909  0.9909
      2s       2.0024  0.0000  0.0000
      2px      1.9998  0.0000  0.0000
      2pz      2.0001  0.0000  0.0000
      2py      2.0001  0.0000  0.0000
      3s       1.9404  0.0000  0.0000
      3px      1.9430  0.0000  0.0000
      3pz      1.1597  0.0000  0.0000
      3py      1.1176  0.0000  0.0000
      *s      -0.0610 -0.0372 -0.0372
      *px      0.0449  0.0045  0.0045
      *pz     -0.0813  0.0126  0.0126
      *py     -0.0820  0.0083  0.0083
      *d2+     0.0039  0.0000  0.0000
      *d1+     0.0007  0.0000  0.0000
      *d0      0.0067  0.0000  0.0000
      *d1-     0.0468  0.0000  0.0000
      *d2-     0.0000  0.0000  0.0000
      Total   16.0417  0.9791  0.9791
 
      N-E     -0.0417  0.0209  0.0209
 
      Total electronic charge=   18.000000
 
      Total            charge=   -0.000000
--
 
 

      Expectation values of various properties for root number:  5
      -----------------------------------------------------------
 
 
++    Molecular properties:
      ---------------------
 
      Charge (e):
                      =   -0.0000
      Dipole Moment (Debye):
      Origin of the operator (Ang)=    0.0000    0.0000    0.0000
                   X=  7.7670E-12               Y= -8.8864E-08               Z= -8.1182E-03           Total=  8.1182E-03
      Quadrupole Moment (Debye*Ang):
      Origin of the operator (Ang)=    0.0000    0.0000    0.0709
                  XX= -1.7107E+01              XY=  1.4281E-12              XZ=  8.1187E-13              YY= -1.5351E+01
                  YZ= -2.5357E-07              ZZ= -1.5933E+01
      In traceless form (Debye*Ang)
                  XX= -1.4648E+00              XY=  2.1421E-12              XZ=  1.2178E-12              YY=  1.1692E+00
                  YZ= -3.8035E-07              ZZ=  2.9555E-01
--
 
      Von Neumann Entropy (Root   6) =  1.64602
 

      Mulliken population analysis for root number:  6
      -----------------------------------------------
 
 
++    Molecular charges:
      ------------------
 
      Mulliken charges per centre and basis function type
      ---------------------------------------------------
 
                S1      H2      H3    
      1s       2.0000  1.0072  1.0072
      2s       2.0024  0.0000  0.0000
      2px      1.9998  0.0000  0.0000
      2pz      2.0001  0.0000  0.0000
      2py      2.0001  0.0000  0.0000
      3s       1.8656  0.0000  0.0000
      3px      1.9440  0.0000  0.0000
      3pz      1.2034  0.0000  0.0000
      3py      1.1799  0.0000  0.0000
      *s      -0.1336 -0.0351 -0.0351
      *px      0.0449  0.0045  0.0045
      *pz     -0.0820  0.0124  0.0124
      *py     -0.0744  0.0083  0.0083
      *d2+     0.0040  0.0000  0.0000
      *d1+     0.0007  0.0000  0.0000
      *d0      0.0068  0.0000  0.0000
      *d1-     0.0436  0.0000  0.0000
      *d2-     0.0000  0.0000  0.0000
      Total   16.0055  0.9973  0.9973
 
      N-E     -0.0055  0.0027  0.0027
 
      Total electronic charge=   18.000000
 
      Total            charge=   -0.000000
--
 
 

      Expectation values of various properties for root number:  6
      -----------------------------------------------------------
 
 
++    Molecular properties:
      ---------------------
 
      Charge (e):
                      =   -0.0000
      Dipole Moment (Debye):
      Origin of the operator (Ang)=    0.0000    0.0000    0.0000
                   X=  7.8164E-12               Y=  1.5993E-08               Z=  3.6480E-01           Total=  3.6480E-01
      Quadrupole Moment (Debye*Ang):
      Origin of the operator (Ang)=    0.0000    0.0000    0.0709
                  XX= -1.7067E+01              XY=  2.9849E-12              XZ=  3.4540E-13              YY= -1.5251E+01
                  YZ=  4.4593E-08              ZZ= -1.5770E+01
      In traceless form (Debye*Ang)
                  XX= -1.5569E+00              XY=  4.4773E-12              XZ=  5.1810E-13              YY=  1.1678E+00
                  YZ=  6.6890E-08              ZZ=  3.8913E-01
--
 
 
      Input file to MOLDEN was generated!
 
 
      Input file to MOLDEN was generated!
 
 
      Input file to MOLDEN was generated!
 
 
      Input file to MOLDEN was generated!
 
 
      Input file to MOLDEN was generated!
 
 
      Input file to MOLDEN was generated!
 
 
      Input file to MOLDEN was generated!
 
      Average orbitals are written to the RASORB file
      Natural orbitals for root   1 are written to the RASORB.1 file
      Natural orbitals for root   2 are written to the RASORB.2 file
      Natural orbitals for root   3 are written to the RASORB.3 file
      Natural orbitals for root   4 are written to the RASORB.4 file
      Natural orbitals for root   5 are written to the RASORB.5 file
      Natural orbitals for root   6 are written to the RASORB.6 file
      Spin density orbitals for root   1 are written to the SPDORB.1 file
      Spin density orbitals for root   2 are written to the SPDORB.2 file
      Spin density orbitals for root   3 are written to the SPDORB.3 file
      Spin density orbitals for root   4 are written to the SPDORB.4 file
      Spin density orbitals for root   5 are written to the SPDORB.5 file
      Spin density orbitals for root   6 are written to the SPDORB.6 file
 
--- Stop Module: rasscf at Thu Mar 21 14:57:41 2024 /rc=_RC_ALL_IS_WELL_ ---
--- Module rasscf spent 2 seconds ---

>>> COPY MOLCAS.rasscf.molden MOLCAS.1.molden

*** symbolic link created: INPORB -> MOLCAS.RasOrb
--- Start Module: caspt2 at Thu Mar 21 14:57:41 2024 ---
 
()()()()()()()()()()()()()()()()()()()()()()()()()()()()()()()()()()()()()()()()()()()()()()()()()()

                                              &CASPT2

                                   only a single process is used
                       available to each process: 10 GB of memory, 1 thread?
                                            pid: 1515339
()()()()()()()()()()()()()()()()()()()()()()()()()()()()()()()()()()()()()()()()()()()()()()()()()()
 
 
++    Wave function specifications:
      -----------------------------
 
      Number of closed shell electrons           0
      Number of electrons in active shells       8
      Max number of holes in RAS1 space          0
      Max number of electrons in RAS3 space      0
      Number of inactive orbitals                0
      Number of active orbitals                  6
      Number of secondary orbitals              17
      Spin quantum number                      0.0
      State symmetry                             1
      Number of CSFs                           105
      Number of CASSCF root(s) available         6
      CASPT2 state passed to geometry opt.       6
      A file JOBMIX will be created
      This is a MULTI-STATE CASSCF reference
      Number of CI roots used                    6
      These are:                                 1   2   3   4   5   6
      Off-diagonal elements of Heff are computed
--
 
++    Orbital specifications:
      -----------------------
 
      Symmetry species                           1
                                                 a
      Frozen orbitals                            5
      Inactive orbitals                          0
      Active orbitals                            6
      Secondary orbitals                        17
      Deleted orbitals                           0
      Number of basis functions                 28
--
 
++    CASPT2 specifications:
      ----------------------
 
      Type of calculation                        MS-CASPT2
      Fock operator                              state-specific
      IPEA shift                                 0.00
      Real shift                                 0.00
      Imaginary shift                            0.00
      The input orbitals will be transformed to quasi-canonical
--
 
--------------------------------------------------------------------------------
 Estimated memory requirements:
  POLY3 :                   257654
  RHS:                      259460
  SIGMA :                   264688
  PRPCTL:                        0
 Available workspace:   1124990452
 
++ CASPT2 computation for group   1
 
********************************************************************************
 Multi-State initialization phase begins for group   1
--------------------------------------------------------------------------------
********************************************************************************
 Compute H0 matrices for state    1
--------------------------------------------------------------------------------
--------------------------------------------------------------------------------
 H0 matrices have been computed.
 
********************************************************************************
  CASPT2 EQUATION SOLUTION
--------------------------------------------------------------------------------
 
  Total nr of CASPT2 parameters:
   Before reduction:        8925
   After  reduction:        8466
 
 Variance of |WF0>:       0.3241248276
 
 The contributions to the second order correlation energy in atomic units.
-----------------------------------------------------------------------------------------------------------------------------
  IT.      VJTU        VJTI        ATVX        AIVX        VJAI        BVAT        BJAT        BJAI        TOTAL       RNORM  
-----------------------------------------------------------------------------------------------------------------------------
   1     0.000000    0.000000   -0.043698    0.000000    0.000000   -0.083789    0.000000    0.000000   -0.127487    0.000570
   2     0.000000    0.000000   -0.043757    0.000000    0.000000   -0.083789    0.000000    0.000000   -0.127546    0.000021
-----------------------------------------------------------------------------------------------------------------------------
 
  FINAL CASPT2 RESULT:
 
      Reference energy:        -398.6915383016
      E2 (Non-variational):      -0.1275471031
      E2 (Variational):          -0.1275470629
      Total energy:            -398.8190853646
      Residual norm:              0.0000007342
      Reference weight:           0.94924
 
      Contributions to the CASPT2 correlation energy
      Active & Virtual Only:         -0.1275471031
      One Inactive Excited:           0.0000000000
      Two Inactive Excited:           0.0000000000
 
 
++ Denominators, etc.
--------------------------------------------------------------------------------------------------------------
 Report on small energy denominators, large coefficients, and large energy contributions.
CASE  SYMM ACTIVE-MIX  NON-ACTIVE INDICES          DENOMINATOR     RHS VALUE       COEFFICIENT     CONTRIBUTION
ATVX     1  Mu1.0016  Se1.013                       1.63549853     -0.04656001      0.02798853     -0.00130315
ATVX     1  Mu1.0016  Se1.014                       1.73336962      0.04830330     -0.02722039     -0.00131483
ATVX     1  Mu1.0009  Se1.015                       1.64727526      0.05374541     -0.03165722     -0.00170143
ATVX     1  Mu1.0017  Se1.016                       1.80690556      0.07412092     -0.04074629     -0.00302015
ATVX     1  Mu1.0009  Se1.018                       1.73732980      0.04534825     -0.02602431     -0.00118016
ATVX     1  Mu1.0007  Se1.019                       1.74065607      0.06715730     -0.03835726     -0.00257597
BVATP    1  Mu1.0005  Se1.013 Se1.012               2.04370446     -0.05263373      0.02525168     -0.00132909
BVATP    1  Mu1.0001  Se1.015 Se1.015               2.14106510     -0.07414085      0.03452359     -0.00255961
BVATP    1  Mu1.0006  Se1.016 Se1.016               2.45858268     -0.06643250      0.02699946     -0.00179364
BVATP    1  Mu1.0001  Se1.018 Se1.018               2.32117417     -0.07638901      0.03290760     -0.00251378
BVATP    1  Mu1.0001  Se1.019 Se1.019               2.34529047     -0.07723715      0.03293287     -0.00254364
BVATM    1  Mu1.0001  Se1.015 Se1.014               2.21726587      0.06344674     -0.02789001     -0.00176953
BVATM    1  Mu1.0001  Se1.018 Se1.013               2.20944932     -0.08151602      0.03632497     -0.00296107
BVATM    1  Mu1.0002  Se1.019 Se1.013               2.22859996     -0.06305844      0.02794170     -0.00176196
BVATM    1  Mu1.0002  Se1.019 Se1.016               2.40000700     -0.06850393      0.02847303     -0.00195051
BVATM    1  Mu1.0002  Se1.020 Se1.019               2.46100810      0.06216904     -0.02561719     -0.00159260
--
 
   (Skipping property calculation,
    use PROP keyword to activate)
--
 
++ CASPT2 computation for group   2
 
********************************************************************************
 Multi-State initialization phase begins for group   2
--------------------------------------------------------------------------------
********************************************************************************
 Compute H0 matrices for state    2
--------------------------------------------------------------------------------
--------------------------------------------------------------------------------
 H0 matrices have been computed.
 
********************************************************************************
  CASPT2 EQUATION SOLUTION
--------------------------------------------------------------------------------
 
  Total nr of CASPT2 parameters:
   Before reduction:        8925
   After  reduction:        7820
 
 Variance of |WF0>:       0.3231110124
 
 The contributions to the second order correlation energy in atomic units.
-----------------------------------------------------------------------------------------------------------------------------
  IT.      VJTU        VJTI        ATVX        AIVX        VJAI        BVAT        BJAT        BJAI        TOTAL       RNORM  
-----------------------------------------------------------------------------------------------------------------------------
   1     0.000000    0.000000   -0.055193    0.000000    0.000000   -0.081037    0.000000    0.000000   -0.136229    0.000564
   2     0.000000    0.000000   -0.055253    0.000000    0.000000   -0.081041    0.000000    0.000000   -0.136294    0.000024
-----------------------------------------------------------------------------------------------------------------------------
 
  FINAL CASPT2 RESULT:
 
      Reference energy:        -398.5081996450
      E2 (Non-variational):      -0.1362959171
      E2 (Variational):          -0.1362958549
      Total energy:            -398.6444954999
      Residual norm:              0.0000008871
      Reference weight:           0.94026
 
      Contributions to the CASPT2 correlation energy
      Active & Virtual Only:         -0.1362959171
      One Inactive Excited:           0.0000000000
      Two Inactive Excited:           0.0000000000
 
 
++ Denominators, etc.
--------------------------------------------------------------------------------------------------------------
 Report on small energy denominators, large coefficients, and large energy contributions.
CASE  SYMM ACTIVE-MIX  NON-ACTIVE INDICES          DENOMINATOR     RHS VALUE       COEFFICIENT     CONTRIBUTION
ATVX     1  Mu1.0025  Se1.013                       1.49229265     -0.07289817      0.04883943     -0.00356030
ATVX     1  Mu1.0001  Se1.017                       0.71894754      0.01849302     -0.02511905     -0.00046453
ATVX     1  Mu1.0049  Se1.018                       1.95981924     -0.05833702      0.02965382     -0.00172992
ATVX     1  Mu1.0051  Se1.019                       1.99413318      0.07612931     -0.03804590     -0.00289641
ATVX     1  Mu1.0007  Se1.020                       1.25160866     -0.03994575      0.03184214     -0.00127196
ATVX     1  Mu1.0025  Se1.020                       1.69697219     -0.04824501      0.02842717     -0.00137147
ATVX     1  Mu1.0009  Se1.021                       1.55541174      0.07094788     -0.04546703     -0.00322579
ATVX     1  Mu1.0011  Se1.021                       1.68104878     -0.04491687      0.02600031     -0.00116785
ATVX     1  Mu1.0007  Se1.022                       1.56612198     -0.05694438      0.03620981     -0.00206195
BVATP    1  Mu1.0009  Se1.016 Se1.016               2.49993188      0.06890493     -0.02752824     -0.00189683
BVATM    1  Mu1.0006  Se1.016 Se1.012               2.25940536     -0.05935909      0.02613309     -0.00155124
BVATM    1  Mu1.0003  Se1.018 Se1.013               2.06114106      0.06544771     -0.03136418     -0.00205271
--
 
   (Skipping property calculation,
    use PROP keyword to activate)
--
 
++ CASPT2 computation for group   3
 
********************************************************************************
 Multi-State initialization phase begins for group   3
--------------------------------------------------------------------------------
********************************************************************************
 Compute H0 matrices for state    3
--------------------------------------------------------------------------------
--------------------------------------------------------------------------------
 H0 matrices have been computed.
 
********************************************************************************
  CASPT2 EQUATION SOLUTION
--------------------------------------------------------------------------------
 
  Total nr of CASPT2 parameters:
   Before reduction:        8925
   After  reduction:        7820
 
 Variance of |WF0>:       0.3174054068
 
 The contributions to the second order correlation energy in atomic units.
-----------------------------------------------------------------------------------------------------------------------------
  IT.      VJTU        VJTI        ATVX        AIVX        VJAI        BVAT        BJAT        BJAI        TOTAL       RNORM  
-----------------------------------------------------------------------------------------------------------------------------
   1     0.000000    0.000000   -0.056522    0.000000    0.000000   -0.081539    0.000000    0.000000   -0.138062    0.000729
   2     0.000000    0.000000   -0.056597    0.000000    0.000000   -0.081562    0.000000    0.000000   -0.138159    0.000028
   3     0.000000    0.000000   -0.056598    0.000000    0.000000   -0.081563    0.000000    0.000000   -0.138161    0.000001
-----------------------------------------------------------------------------------------------------------------------------
 
  FINAL CASPT2 RESULT:
 
      Reference energy:        -398.4785752874
      E2 (Non-variational):      -0.1381612431
      E2 (Variational):          -0.1381612411
      Total energy:            -398.6167365285
      Residual norm:              0.0000000427
      Reference weight:           0.93488
 
      Contributions to the CASPT2 correlation energy
      Active & Virtual Only:         -0.1381612431
      One Inactive Excited:           0.0000000000
      Two Inactive Excited:           0.0000000000
 
 
++ Denominators, etc.
--------------------------------------------------------------------------------------------------------------
 Report on small energy denominators, large coefficients, and large energy contributions.
CASE  SYMM ACTIVE-MIX  NON-ACTIVE INDICES          DENOMINATOR     RHS VALUE       COEFFICIENT     CONTRIBUTION
ATVX     1  Mu1.0013  Se1.012                       1.06362661      0.02856724     -0.02635271     -0.00075282
ATVX     1  Mu1.0001  Se1.013                       0.50440217     -0.03372732      0.06579934     -0.00221924
ATVX     1  Mu1.0011  Se1.013                       1.11288033      0.03102631     -0.02726902     -0.00084606
ATVX     1  Mu1.0031  Se1.013                       1.48062976     -0.06644663      0.04456632     -0.00296128
ATVX     1  Mu1.0001  Se1.014                       0.56430676      0.01678457     -0.02813410     -0.00047222
ATVX     1  Mu1.0044  Se1.016                       1.79234249     -0.05753151      0.03228697     -0.00185752
ATVX     1  Mu1.0039  Se1.017                       1.79648427      0.05120289     -0.02804461     -0.00143597
ATVX     1  Mu1.0002  Se1.018                       0.93809129      0.03032661     -0.03084360     -0.00093538
ATVX     1  Mu1.0004  Se1.018                       0.96169878      0.02603326     -0.02642918     -0.00068804
ATVX     1  Mu1.0055  Se1.018                       1.96427998      0.07369559     -0.03739323     -0.00275572
ATVX     1  Mu1.0003  Se1.019                       0.95479939     -0.02697687      0.02756515     -0.00074362
ATVX     1  Mu1.0023  Se1.019                       1.56762933     -0.04198801      0.02685381     -0.00112754
ATVX     1  Mu1.0053  Se1.019                       1.94712256     -0.07700010      0.03937866     -0.00303216
ATVX     1  Mu1.0031  Se1.020                       1.68530155     -0.06750075      0.03994479     -0.00269630
ATVX     1  Mu1.0009  Se1.022                       1.55795020      0.04161897     -0.02655356     -0.00110513
BVATP    1  Mu1.0009  Se1.014 Se1.014               2.28274562      0.05861288     -0.02539773     -0.00148863
BVATP    1  Mu1.0007  Se1.016 Se1.016               2.40696487     -0.06374259      0.02647444     -0.00168755
BVATP    1  Mu1.0009  Se1.018 Se1.018               2.51248020      0.06325048     -0.02524904     -0.00159701
BVATM    1  Mu1.0007  Se1.016 Se1.012               2.22239248      0.06272063     -0.02787036     -0.00174805
BVATM    1  Mu1.0004  Se1.018 Se1.013               2.06948988     -0.06613534      0.03141898     -0.00207790
BVATM    1  Mu1.0003  Se1.019 Se1.016               2.20065980     -0.05827390      0.02642438     -0.00153985
--
 
   (Skipping property calculation,
    use PROP keyword to activate)
--
 
++ CASPT2 computation for group   4
 
********************************************************************************
 Multi-State initialization phase begins for group   4
--------------------------------------------------------------------------------
********************************************************************************
 Compute H0 matrices for state    4
--------------------------------------------------------------------------------
--------------------------------------------------------------------------------
 H0 matrices have been computed.
 
********************************************************************************
  CASPT2 EQUATION SOLUTION
--------------------------------------------------------------------------------
 
  Total nr of CASPT2 parameters:
   Before reduction:        8925
   After  reduction:        8466
 
 Variance of |WF0>:       0.3159490281
 
 The contributions to the second order correlation energy in atomic units.
-----------------------------------------------------------------------------------------------------------------------------
  IT.      VJTU        VJTI        ATVX        AIVX        VJAI        BVAT        BJAT        BJAI        TOTAL       RNORM  
-----------------------------------------------------------------------------------------------------------------------------
   1     0.000000    0.000000   -0.054824    0.000000    0.000000   -0.089758    0.000000    0.000000   -0.144582    0.000678
   2     0.000000    0.000000   -0.054890    0.000000    0.000000   -0.089790    0.000000    0.000000   -0.144680    0.000025
-----------------------------------------------------------------------------------------------------------------------------
 
  FINAL CASPT2 RESULT:
 
      Reference energy:        -398.3519237615
      E2 (Non-variational):      -0.1446811795
      E2 (Variational):          -0.1446810998
      Total energy:            -398.4966048613
      Residual norm:              0.0000009798
      Reference weight:           0.92966
 
      Contributions to the CASPT2 correlation energy
      Active & Virtual Only:         -0.1446811795
      One Inactive Excited:           0.0000000000
      Two Inactive Excited:           0.0000000000
 
 
++ Denominators, etc.
--------------------------------------------------------------------------------------------------------------
 Report on small energy denominators, large coefficients, and large energy contributions.
CASE  SYMM ACTIVE-MIX  NON-ACTIVE INDICES          DENOMINATOR     RHS VALUE       COEFFICIENT     CONTRIBUTION
ATVX     1  Mu1.0018  Se1.012                       0.89031573     -0.03080882      0.03226382     -0.00099401
ATVX     1  Mu1.0002  Se1.013                       0.43959021     -0.01144928      0.02564074     -0.00029357
ATVX     1  Mu1.0017  Se1.013                       0.94701105      0.03157772     -0.03353990     -0.00105911
ATVX     1  Mu1.0022  Se1.013                       0.98834467      0.04275712     -0.04224688     -0.00180636
ATVX     1  Mu1.0002  Se1.014                       0.52325661      0.01487916     -0.02725344     -0.00040551
ATVX     1  Mu1.0003  Se1.017                       0.65103111      0.01985769     -0.02960675     -0.00058792
ATVX     1  Mu1.0009  Se1.018                       1.09092510      0.04342685     -0.03979526     -0.00172818
ATVX     1  Mu1.0046  Se1.018                       1.61362399     -0.05584968      0.03447217     -0.00192526
ATVX     1  Mu1.0042  Se1.019                       1.62338498      0.04730359     -0.02911824     -0.00137740
ATVX     1  Mu1.0010  Se1.021                       1.39140790      0.04891791     -0.03524450     -0.00172409
ATVX     1  Mu1.0019  Se1.021                       1.43274152     -0.04847566      0.03336549     -0.00161741
ATVX     1  Mu1.0021  Se1.021                       1.46706149     -0.05727473      0.03887455     -0.00222653
BVATP    1  Mu1.0007  Se1.015 Se1.015               2.15119204     -0.07382272      0.03431813     -0.00253346
BVATP    1  Mu1.0007  Se1.018 Se1.018               2.31266554     -0.07882305      0.03407784     -0.00268612
BVATP    1  Mu1.0007  Se1.019 Se1.019               2.34013097     -0.07684817      0.03283926     -0.00252364
BVATM    1  Mu1.0004  Se1.018 Se1.013               2.13312726      0.07158866     -0.03335674     -0.00238796
BVATM    1  Mu1.0005  Se1.019 Se1.013               2.17650017      0.05741617     -0.02618082     -0.00150320
BVATM    1  Mu1.0005  Se1.019 Se1.016               2.33309248      0.06730730     -0.02882112     -0.00193987
--
 
   (Skipping property calculation,
    use PROP keyword to activate)
--
 
++ CASPT2 computation for group   5
 
********************************************************************************
 Multi-State initialization phase begins for group   5
--------------------------------------------------------------------------------
********************************************************************************
 Compute H0 matrices for state    5
--------------------------------------------------------------------------------
--------------------------------------------------------------------------------
 H0 matrices have been computed.
 
********************************************************************************
  CASPT2 EQUATION SOLUTION
--------------------------------------------------------------------------------
 
  Total nr of CASPT2 parameters:
   Before reduction:        8925
   After  reduction:        8466
 
 Variance of |WF0>:       0.3230554744
 
 The contributions to the second order correlation energy in atomic units.
-----------------------------------------------------------------------------------------------------------------------------
  IT.      VJTU        VJTI        ATVX        AIVX        VJAI        BVAT        BJAT        BJAI        TOTAL       RNORM  
-----------------------------------------------------------------------------------------------------------------------------
   1     0.000000    0.000000   -0.065321    0.000000    0.000000   -0.086192    0.000000    0.000000   -0.151513    0.000663
   2     0.000000    0.000000   -0.065401    0.000000    0.000000   -0.086213    0.000000    0.000000   -0.151614    0.000029
   3     0.000000    0.000000   -0.065402    0.000000    0.000000   -0.086214    0.000000    0.000000   -0.151616    0.000001
-----------------------------------------------------------------------------------------------------------------------------
 
  FINAL CASPT2 RESULT:
 
      Reference energy:        -398.3458777734
      E2 (Non-variational):      -0.1516155435
      E2 (Variational):          -0.1516155419
      Total energy:            -398.4974933152
      Residual norm:              0.0000000438
      Reference weight:           0.92197
 
      Contributions to the CASPT2 correlation energy
      Active & Virtual Only:         -0.1516155435
      One Inactive Excited:           0.0000000000
      Two Inactive Excited:           0.0000000000
 
 
++ Denominators, etc.
--------------------------------------------------------------------------------------------------------------
 Report on small energy denominators, large coefficients, and large energy contributions.
CASE  SYMM ACTIVE-MIX  NON-ACTIVE INDICES          DENOMINATOR     RHS VALUE       COEFFICIENT     CONTRIBUTION
ATVX     1  Mu1.0002  Se1.012                       0.39449059      0.01285875     -0.03217661     -0.00041375
ATVX     1  Mu1.0015  Se1.012                       0.87560505     -0.03436620      0.03821048     -0.00131315
ATVX     1  Mu1.0018  Se1.013                       0.94651157     -0.03237539      0.03384863     -0.00109586
ATVX     1  Mu1.0019  Se1.013                       0.95526278      0.05191401     -0.05349176     -0.00277697
ATVX     1  Mu1.0020  Se1.013                       0.95526278      0.02708399     -0.02901373     -0.00078581
ATVX     1  Mu1.0003  Se1.016                       0.62626869      0.04037929     -0.06421232     -0.00259285
ATVX     1  Mu1.0018  Se1.016                       1.10738315     -0.02930760      0.02599416     -0.00076183
ATVX     1  Mu1.0043  Se1.016                       1.56885655      0.04407395     -0.02801015     -0.00123452
ATVX     1  Mu1.0057  Se1.016                       1.60410946      0.06310162     -0.03909384     -0.00246688
ATVX     1  Mu1.0065  Se1.016                       1.63250173      0.07442947     -0.04540464     -0.00337944
ATVX     1  Mu1.0002  Se1.017                       0.63416503      0.02252384     -0.03460091     -0.00077935
ATVX     1  Mu1.0045  Se1.018                       1.61299403     -0.04848214      0.03000646     -0.00145478
ATVX     1  Mu1.0001  Se1.019                       0.63932864      0.03369036     -0.05257034     -0.00177111
ATVX     1  Mu1.0029  Se1.019                       1.58677842     -0.04519545      0.02851972     -0.00128896
ATVX     1  Mu1.0003  Se1.020                       0.69103375      0.02343519     -0.03344335     -0.00078375
ATVX     1  Mu1.0017  Se1.021                       1.43057681      0.04642747     -0.03187003     -0.00147964
ATVX     1  Mu1.0018  Se1.022                       1.48268484      0.04770162     -0.03190173     -0.00152176
BVATP    1  Mu1.0007  Se1.015 Se1.015               2.15725965     -0.07361022      0.03412171     -0.00251171
BVATP    1  Mu1.0007  Se1.018 Se1.018               2.31892921     -0.07666109      0.03305003     -0.00253365
BVATP    1  Mu1.0007  Se1.019 Se1.019               2.34582078     -0.07582394      0.03232299     -0.00245086
BVATM    1  Mu1.0004  Se1.015 Se1.014               2.15647966     -0.05463748      0.02504407     -0.00136834
BVATM    1  Mu1.0004  Se1.018 Se1.013               2.14179359      0.07281796     -0.03373364     -0.00245642
BVATM    1  Mu1.0005  Se1.019 Se1.013               2.15872551     -0.05473585      0.02542118     -0.00139145
BVATM    1  Mu1.0005  Se1.019 Se1.016               2.31959709     -0.06198600      0.02670702     -0.00165546
--
 
   (Skipping property calculation,
    use PROP keyword to activate)
--
 
++ CASPT2 computation for group   6
 
********************************************************************************
 Multi-State initialization phase begins for group   6
--------------------------------------------------------------------------------
********************************************************************************
 Compute H0 matrices for state    6
--------------------------------------------------------------------------------
--------------------------------------------------------------------------------
 H0 matrices have been computed.
 
********************************************************************************
  CASPT2 EQUATION SOLUTION
--------------------------------------------------------------------------------
 
  Total nr of CASPT2 parameters:
   Before reduction:        8925
   After  reduction:        8466
 
 Variance of |WF0>:       0.3513965189
 
 The contributions to the second order correlation energy in atomic units.
-----------------------------------------------------------------------------------------------------------------------------
  IT.      VJTU        VJTI        ATVX        AIVX        VJAI        BVAT        BJAT        BJAI        TOTAL       RNORM  
-----------------------------------------------------------------------------------------------------------------------------
   1     0.000000    0.000000   -0.078839    0.000000    0.000000   -0.092140    0.000000    0.000000   -0.170979    0.000614
   2     0.000000    0.000000   -0.078921    0.000000    0.000000   -0.092173    0.000000    0.000000   -0.171094    0.000018
-----------------------------------------------------------------------------------------------------------------------------
 
  FINAL CASPT2 RESULT:
 
      Reference energy:        -398.2824194059
      E2 (Non-variational):      -0.1710941421
      E2 (Variational):          -0.1710940624
      Total energy:            -398.4535134684
      Residual norm:              0.0000007376
      Reference weight:           0.90006
 
      Contributions to the CASPT2 correlation energy
      Active & Virtual Only:         -0.1710941421
      One Inactive Excited:           0.0000000000
      Two Inactive Excited:           0.0000000000
 
 
++ Denominators, etc.
--------------------------------------------------------------------------------------------------------------
 Report on small energy denominators, large coefficients, and large energy contributions.
CASE  SYMM ACTIVE-MIX  NON-ACTIVE INDICES          DENOMINATOR     RHS VALUE       COEFFICIENT     CONTRIBUTION
ATVX     1  Mu1.0002  Se1.012                       0.41374116     -0.04061202      0.09816087     -0.00398651
ATVX     1  Mu1.0016  Se1.012                       0.90823801      0.02182640     -0.02547626     -0.00055606
ATVX     1  Mu1.0018  Se1.012                       0.92036236     -0.03489065      0.03795244     -0.00132419
ATVX     1  Mu1.0022  Se1.012                       0.94225078     -0.02309960      0.02611572     -0.00060326
ATVX     1  Mu1.0003  Se1.013                       0.48782564     -0.05149881      0.10496459     -0.00540555
ATVX     1  Mu1.0061  Se1.013                       1.48472273      0.03845241     -0.02526150     -0.00097137
ATVX     1  Mu1.0003  Se1.016                       0.64926858     -0.05358646      0.08338248     -0.00446817
ATVX     1  Mu1.0044  Se1.016                       1.61215291      0.05535113     -0.03425396     -0.00189600
ATVX     1  Mu1.0049  Se1.016                       1.62427725      0.05255215     -0.03228262     -0.00169652
ATVX     1  Mu1.0064  Se1.016                       1.65829001      0.05804707     -0.03479486     -0.00201974
ATVX     1  Mu1.0002  Se1.017                       0.65602582     -0.02977100      0.04463466     -0.00132882
ATVX     1  Mu1.0034  Se1.018                       1.62590692      0.05153463     -0.03165560     -0.00163136
ATVX     1  Mu1.0001  Se1.019                       0.65171772     -0.05020380      0.07760925     -0.00389628
ATVX     1  Mu1.0030  Se1.019                       1.62156621     -0.05369665      0.03303540     -0.00177389
ATVX     1  Mu1.0038  Se1.019                       1.64888501     -0.04887934      0.02959149     -0.00144641
ATVX     1  Mu1.0052  Se1.019                       1.68082969     -0.05233080      0.03106830     -0.00162583
ATVX     1  Mu1.0015  Se1.021                       1.45725614      0.04292103     -0.02917017     -0.00125201
BVATP    1  Mu1.0006  Se1.015 Se1.015               2.15939808      0.07388530     -0.03421528     -0.00252801
BVATP    1  Mu1.0006  Se1.018 Se1.018               2.31927699      0.07500127     -0.03230272     -0.00242274
BVATP    1  Mu1.0006  Se1.019 Se1.019               2.34536189      0.07600304     -0.03240568     -0.00246293
BVATM    1  Mu1.0004  Se1.015 Se1.014               2.17461130      0.05676990     -0.02583248     -0.00146651
BVATM    1  Mu1.0004  Se1.018 Se1.013               2.15268220     -0.07423378      0.03419694     -0.00253857
BVATM    1  Mu1.0005  Se1.019 Se1.013               2.17529629     -0.05639301      0.02530960     -0.00142728
BVATM    1  Mu1.0005  Se1.019 Se1.016               2.33673923     -0.06402359      0.02734970     -0.00175103
--
 
   (Skipping property calculation,
    use PROP keyword to activate)
--
 
  Total CASPT2 energies:
::    CASPT2 Root  1     Total energy:   -398.81908536
::    CASPT2 Root  2     Total energy:   -398.64449550
::    CASPT2 Root  3     Total energy:   -398.61673653
::    CASPT2 Root  4     Total energy:   -398.49660486
::    CASPT2 Root  5     Total energy:   -398.49749332
::    CASPT2 Root  6     Total energy:   -398.45351347
 
++ Multi-State CASPT2 section:
********************************************************************************
  MULTI-STATE CASPT2 SECTION
--------------------------------------------------------------------------------
 
  Output diagonal energies have been shifted. Add   -398.000000000000     
 
  Effective Hamiltonian matrix (Symmetric):
 
                1               2               3               4               5
   1        -0.81908536
   2        -0.00000000     -0.64449550
   3         0.00000000     -0.00000000     -0.61673653
   4        -0.00140172      0.00000000     -0.00000000     -0.49660486
   5        -0.00000000      0.00000000     -0.00000000      0.00000000     -0.49749332
   6         0.00000000      0.00000000      0.00000000      0.00000000     -0.00936787
 
                6
   6        -0.45351347
 
       Total MS-CASPT2 energies:
::    MS-CASPT2 Root  1     Total energy:   -398.81909146
::    MS-CASPT2 Root  2     Total energy:   -398.64449550
::    MS-CASPT2 Root  3     Total energy:   -398.61673653
::    MS-CASPT2 Root  4     Total energy:   -398.49940556
::    MS-CASPT2 Root  5     Total energy:   -398.49659877
::    MS-CASPT2 Root  6     Total energy:   -398.45160122
 
       Eigenvectors:
            0.99999055     -0.00000000      0.00000000     -0.00000000     -0.00434656
            0.00000000      1.00000000     -0.00000000      0.00000000      0.00000000
           -0.00000000      0.00000000      1.00000000     -0.00000000     -0.00000000
            0.00434656     -0.00000000      0.00000000     -0.00000002      0.99999055
            0.00000000     -0.00000000      0.00000000      0.97979511      0.00000002
           -0.00000000     -0.00000000     -0.00000000      0.20000386     -0.00000000
 
            0.00000000
            0.00000000
            0.00000000
            0.00000001
           -0.20000386
            0.97979511
 
--
 
  THE ORIGINAL CI ARRAYS ARE NOW MIXED AS LINEAR
  COMBINATIONS, GIVEN BY THE EIGENVECTORS.
  A NEW JOBIPH FILE NAMED 'JOBMIX' IS PREPARED.
********************************************************************************
 
++ Mixed CI coefficients:
  The CI coefficients for the MIXED state nr.   1
--------------------------------------------------------------------------------
 CI COEFFICIENTS LARGER THAN  0.10D+00
  Occupation of active orbitals, and spin coupling
  of open shells. (u,d: Spin up or down).
  SGUGA info is (Midvert:IsyUp:UpperWalk/LowerWalk)
        Conf  SGUGA info        Occupation    Coefficient         Weight
           1  ( 1:1:   1/   1)   222200         -0.971759       0.944316
          15  ( 2:1:   1/   2)   2u22d0          0.111840       0.012508
          38  ( 3:1:   2/   2)   2ud2ud          0.108960       0.011872
 
  The CI coefficients for the MIXED state nr.   2
--------------------------------------------------------------------------------
 CI COEFFICIENTS LARGER THAN  0.10D+00
  Occupation of active orbitals, and spin coupling
  of open shells. (u,d: Spin up or down).
  SGUGA info is (Midvert:IsyUp:UpperWalk/LowerWalk)
        Conf  SGUGA info        Occupation    Coefficient         Weight
           2  ( 1:1:   2/   1)   222ud0          0.975395       0.951395
          10  ( 2:1:   4/   1)   22udud          0.109059       0.011894
 
  The CI coefficients for the MIXED state nr.   3
--------------------------------------------------------------------------------
 CI COEFFICIENTS LARGER THAN  0.10D+00
  Occupation of active orbitals, and spin coupling
  of open shells. (u,d: Spin up or down).
  SGUGA info is (Midvert:IsyUp:UpperWalk/LowerWalk)
        Conf  SGUGA info        Occupation    Coefficient         Weight
           4  ( 1:1:   4/   1)   222u0d         -0.961841       0.925139
           8  ( 2:1:   2/   1)   22ud20         -0.113021       0.012774
          18  ( 2:1:   4/   2)   2u2dud         -0.165201       0.027291
          51  ( 3:1:   3/   4)   202u2d         -0.105878       0.011210
 
  The CI coefficients for the MIXED state nr.   4
--------------------------------------------------------------------------------
[...]
         4    5            96.484817  1.32480381E-03  3.76880513E-02
         4    6          1447.887729  1.65211826E-04  1.06733727E-05
         5    6            91.614774  7.07291587E-04  8.43497352E-03
         7    8            56.854956  8.51404844E-03  1.97335491E-02
     ---------------------------------------------------------------
 
 Number of problematic transitions =                     10
 
--
 
 Electric-dipole - electric-octupole not included
 Electric-dipole - magnetic-quadrupole not included
 
 
 
      ****************************************************************************************************
      *                                                                                                  *
      *                                         Spin-orbit section                                       *
      *                                                                                                  *
      ****************************************************************************************************
 
 
 Complex SO-Hamiltonian matrix elements over
 spin components of spin-free eigenstates (SFS):
 (In cm-1. Print threshold:      0.000 cm-1)
 ----------------------------------------------------------------------
 
  I1  S1  MS1    I2  S2  MS2    Real part    Imag part      Absolute
     1  0.0  0.0    1  0.0  0.0         0.000         0.000         0.000
     2  0.0  0.0    1  0.0  0.0         0.000         0.000         0.000
     2  0.0  0.0    2  0.0  0.0         0.000         0.000         0.000
     3  0.0  0.0    1  0.0  0.0         0.000         0.000         0.000
     3  0.0  0.0    2  0.0  0.0         0.000         0.000         0.000
     3  0.0  0.0    3  0.0  0.0         0.000         0.000         0.000
     4  0.0  0.0    1  0.0  0.0         0.000         0.000         0.000
     4  0.0  0.0    2  0.0  0.0         0.000         0.000         0.000
     4  0.0  0.0    3  0.0  0.0         0.000         0.000         0.000
     4  0.0  0.0    4  0.0  0.0         0.000         0.000         0.000
     5  0.0  0.0    1  0.0  0.0         0.000         0.000         0.000
     5  0.0  0.0    2  0.0  0.0         0.000         0.000         0.000
     5  0.0  0.0    3  0.0  0.0         0.000         0.000         0.000
     5  0.0  0.0    4  0.0  0.0         0.000         0.000         0.000
     5  0.0  0.0    5  0.0  0.0         0.000         0.000         0.000
     6  0.0  0.0    1  0.0  0.0         0.000         0.000         0.000
     6  0.0  0.0    2  0.0  0.0         0.000         0.000         0.000
     6  0.0  0.0    3  0.0  0.0         0.000         0.000         0.000
     6  0.0  0.0    4  0.0  0.0         0.000         0.000         0.000
     6  0.0  0.0    5  0.0  0.0         0.000         0.000         0.000
     6  0.0  0.0    6  0.0  0.0         0.000         0.000         0.000
     7  0.5 -0.5    1  0.0  0.0         0.000         0.000         0.000
     7  0.5 -0.5    2  0.0  0.0         0.000         0.000         0.000
     7  0.5 -0.5    3  0.0  0.0         0.000         0.000         0.000
     7  0.5 -0.5    4  0.0  0.0         0.000         0.000         0.000
     7  0.5 -0.5    5  0.0  0.0         0.000         0.000         0.000
     7  0.5 -0.5    6  0.0  0.0         0.000         0.000         0.000
     7  0.5 -0.5    7  0.5 -0.5         0.000         0.000         0.000
     8  0.5  0.5    1  0.0  0.0         0.000         0.000         0.000
     8  0.5  0.5    2  0.0  0.0         0.000         0.000         0.000
     8  0.5  0.5    3  0.0  0.0         0.000         0.000         0.000
     8  0.5  0.5    4  0.0  0.0         0.000         0.000         0.000
     8  0.5  0.5    5  0.0  0.0         0.000         0.000         0.000
     8  0.5  0.5    6  0.0  0.0         0.000         0.000         0.000
     8  0.5  0.5    7  0.5 -0.5        -0.000         0.000         0.000
     8  0.5  0.5    8  0.5  0.5         0.000        -0.000         0.000
     9  0.5 -0.5    1  0.0  0.0         0.000         0.000         0.000
     9  0.5 -0.5    2  0.0  0.0         0.000         0.000         0.000
     9  0.5 -0.5    3  0.0  0.0         0.000         0.000         0.000
     9  0.5 -0.5    4  0.0  0.0         0.000         0.000         0.000
     9  0.5 -0.5    5  0.0  0.0         0.000         0.000         0.000
     9  0.5 -0.5    6  0.0  0.0         0.000         0.000         0.000
     9  0.5 -0.5    7  0.5 -0.5         0.000        -0.000         0.000
     9  0.5 -0.5    8  0.5  0.5      -157.607         0.000       157.607
     9  0.5 -0.5    9  0.5 -0.5         0.000        -0.000         0.000
    10  0.5  0.5    1  0.0  0.0         0.000         0.000         0.000
    10  0.5  0.5    2  0.0  0.0         0.000         0.000         0.000
    10  0.5  0.5    3  0.0  0.0         0.000         0.000         0.000
    10  0.5  0.5    4  0.0  0.0         0.000         0.000         0.000
    10  0.5  0.5    5  0.0  0.0         0.000         0.000         0.000
    10  0.5  0.5    6  0.0  0.0         0.000         0.000         0.000
    10  0.5  0.5    7  0.5 -0.5       157.607         0.000       157.607
    10  0.5  0.5    8  0.5  0.5         0.000         0.000         0.000
    10  0.5  0.5    9  0.5 -0.5         0.000         0.000         0.000
    10  0.5  0.5   10  0.5  0.5         0.000         0.000         0.000
    11  1.0 -1.0    1  0.0  0.0        -0.000         0.000         0.000
    11  1.0 -1.0    2  0.0  0.0         0.000         0.000         0.000
    11  1.0 -1.0    3  0.0  0.0         0.000       -60.494        60.494
    11  1.0 -1.0    4  0.0  0.0        79.156        -0.000        79.156
    11  1.0 -1.0    5  0.0  0.0         0.000         0.000         0.000
    11  1.0 -1.0    6  0.0  0.0        37.709        -0.000        37.709
    11  1.0 -1.0    7  0.5 -0.5         0.000         0.000         0.000
    11  1.0 -1.0    8  0.5  0.5         0.000         0.000         0.000
    11  1.0 -1.0    9  0.5 -0.5         0.000         0.000         0.000
    11  1.0 -1.0   10  0.5  0.5         0.000         0.000         0.000
    11  1.0 -1.0   11  1.0 -1.0         0.000         0.000         0.000
    12  1.0  0.0    1  0.0  0.0         0.000      -176.343       176.343
    12  1.0  0.0    2  0.0  0.0         0.000        -0.000         0.000
    12  1.0  0.0    3  0.0  0.0         0.000         0.000         0.000
    12  1.0  0.0    4  0.0  0.0         0.000        -0.000         0.000
    12  1.0  0.0    5  0.0  0.0         0.000       -70.315        70.315
    12  1.0  0.0    6  0.0  0.0         0.000         0.000         0.000
    12  1.0  0.0    7  0.5 -0.5         0.000         0.000         0.000
    12  1.0  0.0    8  0.5  0.5         0.000         0.000         0.000
    12  1.0  0.0    9  0.5 -0.5         0.000         0.000         0.000
    12  1.0  0.0   10  0.5  0.5         0.000         0.000         0.000
    12  1.0  0.0   11  1.0 -1.0         0.000        -0.000         0.000
    12  1.0  0.0   12  1.0  0.0         0.000         0.000         0.000
    13  1.0  1.0    1  0.0  0.0        -0.000        -0.000         0.000
    13  1.0  1.0    2  0.0  0.0         0.000        -0.000         0.000
    13  1.0  1.0    3  0.0  0.0         0.000        60.494        60.494
    13  1.0  1.0    4  0.0  0.0        79.156         0.000        79.156
    13  1.0  1.0    5  0.0  0.0         0.000        -0.000         0.000
    13  1.0  1.0    6  0.0  0.0        37.709         0.000        37.709
    13  1.0  1.0    7  0.5 -0.5         0.000         0.000         0.000
    13  1.0  1.0    8  0.5  0.5         0.000         0.000         0.000
    13  1.0  1.0    9  0.5 -0.5         0.000         0.000         0.000
    13  1.0  1.0   10  0.5  0.5         0.000         0.000         0.000
    13  1.0  1.0   11  1.0 -1.0         0.000         0.000         0.000
    13  1.0  1.0   12  1.0  0.0         0.000        -0.000         0.000
    13  1.0  1.0   13  1.0  1.0         0.000        -0.000         0.000
 ----------------------------------------------------------------------
 
       Total energies including SO-coupling:
::    SO-RASSI State    1     Total energy:    -398.81909554128379
::    SO-RASSI State    2     Total energy:    -398.66102448606239
::    SO-RASSI State    3     Total energy:    -398.66102294684276
::    SO-RASSI State    4     Total energy:    -398.66101759552527
::    SO-RASSI State    5     Total energy:    -398.64449549989553
::    SO-RASSI State    6     Total energy:    -398.61673309769071
::    SO-RASSI State    7     Total energy:    -398.49940395299575
::    SO-RASSI State    8     Total energy:    -398.49659814425178
::    SO-RASSI State    9     Total energy:    -398.46479373024329
::    SO-RASSI State   10     Total energy:    -398.46479373024329
::    SO-RASSI State   11     Total energy:    -398.45160093899483
::    SO-RASSI State   12     Total energy:    -398.33652274433581
::    SO-RASSI State   13     Total energy:    -398.33652274433581
 
 
   Eigenvalues of complex Hamiltonian:
   -----------------------------------
  (Shifted by EMIN (a.u.) =       -398.8190914573)
 
 SO State       Relative EMIN(au)   Rel lowest level(eV)    D:o, cm**(-1)
 
     1            -0.0000040840        0.0000000000              0.0000
     2             0.1580669712        4.3013325379          34692.5866
     3             0.1580685104        4.3013744222          34692.9244
     4             0.1580738618        4.3015200390          34694.0989
     5             0.1745959574        4.7511091648          38320.2797
     6             0.2023583596        5.5065626143          44413.4227
     7             0.3196875043        8.6992512885          70164.1935
     8             0.3224933130        8.7756012340          70779.9973
     9             0.3542977270        9.6410434279          77760.2594
    10             0.3542977270        9.6410434279          77760.2594
    11             0.3674905183       10.0000375662          80655.7424
    12             0.4825687129       13.1314747696         105912.4867
    13             0.4825687129       13.1314747696         105912.4867
 
 
 Weights of the five most important spin-orbit-free states for each spin-orbit s
 tate.
 
 SO State  Total energy (au)           Spin-free states, spin, and weights
 -------------------------------------------------------------------------------
 ------------------------
    1        -0.000004       1 0.0  1.0000    9 1.0  0.0000    5 0.0  0.0000    4 0.0  0.0000    6 0.0  0.0000
    2         0.158067       9 1.0  0.9999    3 0.0  0.0001    2 0.0  0.0000    4 0.0  0.0000    6 0.0  0.0000
    3         0.158069       9 1.0  1.0000    4 0.0  0.0000    6 0.0  0.0000    1 0.0  0.0000    5 0.0  0.0000
    4         0.158074       9 1.0  1.0000    1 0.0  0.0000    5 0.0  0.0000    6 0.0  0.0000    4 0.0  0.0000
    5         0.174596       2 0.0  1.0000    9 1.0  0.0000    3 0.0  0.0000    4 0.0  0.0000    6 0.0  0.0000
    6         0.202358       3 0.0  0.9999    9 1.0  0.0001    4 0.0  0.0000    6 0.0  0.0000    2 0.0  0.0000
    7         0.319688       4 0.0  1.0000    9 1.0  0.0000    6 0.0  0.0000    1 0.0  0.0000    5 0.0  0.0000
    8         0.322493       5 0.0  1.0000    9 1.0  0.0000    1 0.0  0.0000    4 0.0  0.0000    6 0.0  0.0000
    9         0.354298       7 0.5  1.0000    8 0.5  0.0000    9 1.0  0.0000    6 0.0  0.0000    5 0.0  0.0000
   10         0.354298       7 0.5  1.0000    8 0.5  0.0000    9 1.0  0.0000    6 0.0  0.0000    5 0.0  0.0000
   11         0.367491       6 0.0  1.0000    9 1.0  0.0000    4 0.0  0.0000    1 0.0  0.0000    5 0.0  0.0000
   12         0.482569       8 0.5  1.0000    7 0.5  0.0000    9 1.0  0.0000    6 0.0  0.0000    5 0.0  0.0000
   13         0.482569       8 0.5  1.0000    7 0.5  0.0000    9 1.0  0.0000    6 0.0  0.0000    5 0.0  0.0000
 -------------------------------------------------------------------------------
 ------------------------
 
 
      ****************************************************************************************************
      *                                                                                                  *
      *                                    Special properties section                                    *
      *                                                                                                  *
      ****************************************************************************************************
 
 
++ Dipole transition strengths (SO states):
   ----------------------------------------
        for osc. strength at least   1.00000000E-05
 
      From   To        Osc. strength     Einstein coefficients Ax, Ay, Az (sec-1)    Total A (sec-1)
     -----------------------------------------------------------------------------------------------
         1    6       1.14030520E-04  1.50034737E+05  6.75725131E-15  6.33298479E-18  1.50034737E+05
         1    7       6.06838806E-02  9.83730076E-16  1.99272169E+08  1.26952066E-08  1.99272169E+08
         1    8       1.94284865E-02  3.71197471E-15  4.17082224E-12  6.49235533E+07  6.49235533E+07
         1   11       7.96822499E-01  9.19421923E-14  3.45759723E+09  2.72931406E-07  3.45759723E+09
         4   11       1.09780506E-05  4.77770059E-19  1.54688688E+04  1.28189797E-12  1.54688688E+04
         5    6       7.39636156E-03  1.26121464E-17  1.83165257E+05  3.76835720E-12  1.83165257E+05
         5    7       4.80778600E-03  3.25192286E+06  1.11612426E-15  4.51563355E-17  3.25192286E+06
         5   11       4.67558678E-03  5.58968030E+06  2.58523986E-21  1.32524722E-16  5.58968030E+06
         6    8       5.45468945E-03  2.52941263E+06  1.79714398E-16  5.65577251E-17  2.52941263E+06
         7    8       1.32432009E-03  2.67420512E-20  3.34980850E+02  8.92837806E-15  3.34980850E+02
         7   11       1.65196079E-04  3.60661158E-19  1.79634759E-12  1.21288934E+04  1.21288934E+04
         8   11       7.07267263E-04  2.07963507E-18  4.60114079E+04  2.79268835E-12  4.60114079E+04
         9   12       8.51458218E-03  4.50122882E+06  1.55602295E-12  1.04799666E-18  4.50122882E+06
        10   13       8.51458218E-03  4.50122882E+06  1.55602295E-12  1.04806221E-18  4.50122882E+06
     -----------------------------------------------------------------------------------------------
--
 
++ Velocity transition strengths (SO states):
   ------------------------------------------
        for osc. strength at least   1.00000000E-05
 
      From   To        Osc. strength     Einstein coefficients Ax, Ay, Az (sec-1)    Total A (sec-1)
     -----------------------------------------------------------------------------------------------
         1    6       4.33423756E-03  5.70273807E+06  2.07124367E-13  1.81012461E-14  5.70273807E+06
         1    7       6.18387836E-02  5.96884653E-15  2.03064610E+08  2.01802926E-08  2.03064610E+08
         1    8       2.60354847E-02  4.57057689E-15  1.71004100E-10  8.70019484E+07  8.70019484E+07
         1   11       8.01116954E-01  2.14661194E-13  3.47623186E+09  3.33844761E-07  3.47623186E+09
         4   11       3.53282291E-05  4.69818405E-18  4.97800347E+04  5.19929713E-12  4.97800347E+04
         5    6       7.10857941E-04  7.66316353E-15  1.76038552E+04  2.25446439E-12  1.76038552E+04
         5    7       4.36167196E-03  2.95017722E+06  4.22278103E-15  4.49134684E-16  2.95017722E+06
         5   11       5.48934541E-03  6.56253158E+06  2.14292666E-15  2.84157235E-16  6.56253158E+06
         6    8       1.38780859E-02  6.43545451E+06  7.32979802E-15  7.89153436E-16  6.43545451E+06
         7    8       3.77034817E-02  2.71270314E-17  9.53692724E+03  1.49548524E-13  9.53692724E+03
         7   11       1.06735485E-05  2.15701219E-17  4.28048187E-13  7.83664673E+02  7.83664673E+02
         8   11       8.43738569E-03  8.59784742E-15  5.48895750E+05  2.19473122E-10  5.48895750E+05
         9   12       1.97298383E-02  1.04301673E+07  1.75644442E-12  6.04510683E-18  1.04301673E+07
        10   13       1.97298383E-02  1.04301673E+07  1.75644442E-12  6.04510683E-18  1.04301673E+07
     -----------------------------------------------------------------------------------------------
--
 
++ Length and velocity gauge comparison (SO states):
 
 --------------------------------------------------
 A comparison between the dipole oscillator strengths in 
 length and velocity gauge will be performed
 
     All dipole oscillator differences above the tolerance of   1.00000000E-01  will be printed 
 
 Due to basis set deficiency these oscillator may be problematic 
 
 The tolerance is defined as ABS(1-O_l/O_v) 
 O_l : dipole oscillator strength in length gauge
 O_p : dipole oscillator strength in velocity gauge
 --------------------------------------------------
 
  Problematic transitions have been found
 
      From   To       Difference (%) Osc. st. (len.) Osc. st. (vel.)
     ---------------------------------------------------------------
         1    6            97.369075  1.14030520E-04  4.33423756E-03
         1    8            25.376897  1.94284865E-02  2.60354847E-02
         4   11            68.925556  1.09780506E-05  3.53282291E-05
         5    6           940.483778  7.39636156E-03  7.10857941E-04
         5    7            10.228051  4.80778600E-03  4.36167196E-03
         5   11            14.824329  4.67558678E-03  5.48934541E-03
         6    8            60.695665  5.45468945E-03  1.38780859E-02
         7    8            96.487539  1.32432009E-03  3.77034817E-02
         7   11          1447.714706  1.65196079E-04  1.06735485E-05
         8   11            91.617460  7.07267263E-04  8.43738569E-03
         9   12            56.844136  8.51458218E-03  1.97298383E-02
        10   13            56.844136  8.51458218E-03  1.97298383E-02
     ---------------------------------------------------------------
 
 Number of problematic transitions =                     12
 
--
 
 Electric-dipole - electric-octupole not included
++ I/O STATISTICS
 
  I. General I/O information
  - - - - - - - - - - - - - - - - - - - - - - - - - - - - - - - - - - - - - - - - - - -
  Unit  Name          Flsize      Write/Read            MBytes           Write/Read
                      (MBytes)       Calls              In/Out           Time, sec.
  - - - - - - - - - - - - - - - - - - - - - - - - - - - - - - - - - - - - - - - - - - -
   1  ANNI              0.00 .       0/       0 .      0.0/      0.0 .       0/       0
   2  RUNFILE           0.26 .     322/    7602 .      2.3/     55.1 .       0/       0
   3  ONEINT            1.46 .       0/    2757 .      0.0/   2496.5 .       0/       0
   4  JOB001            1.22 .       0/      83 .      0.0/      1.1 .       0/       0
   5  JOB002            1.22 .       0/      51 .      0.0/      1.1 .       0/       0
   6  JOB003            1.22 .       0/      43 .      0.0/      1.1 .       0/       0
  - - - - - - - - - - - - - - - - - - - - - - - - - - - - - - - - - - - - - - - - - - -
   *  TOTAL             5.38 .     322/   10536 .      2.3/   2554.9 .       0/       0
  - - - - - - - - - - - - - - - - - - - - - - - - - - - - - - - - - - - - - - - - - - -
 
  II. I/O Access Patterns
  - - - - - - - - - - - - - - - - - - - -
  Unit  Name               % of random
                         Write/Read calls
  - - - - - - - - - - - - - - - - - - - -
   1  ANNI                 0.0/   0.0
   2  RUNFILE             28.6/  10.8
   3  ONEINT               0.0/  97.6
   4  JOB001               0.0/  65.1
   5  JOB002               0.0/  74.5
   6  JOB003               0.0/  79.1
  - - - - - - - - - - - - - - - - - - - -
--
--- Stop Module: rassi at Thu Mar 21 14:57:53 2024 /rc=_RC_ALL_IS_WELL_ ---
--- Module rassi spent 4 seconds ---

.##################.
.# Happy landing! #.
.##################.

    Timing: Wall=16.44 User=14.19 System=1.97
