   This run of MOLCAS is using the pymolcas driver

                             OPE
                             OPE          NMOL  CASOP  ENMOLC A   SO
                 OPE        NMOLC        AS  OP EN  MO LC     AS  OP
                OPENM       OL CA        SO  PE NM  OL CA     SOP EN
                OP EN      MO   LC       AS  OP ENMOL  CASO   PENMOL
                OP  EN     MO   LC       AS  OP EN     MO     LC ASO
               OP   E  NMOL  C  AS       OP  EN MO     LC     AS  OP
               OP  E   NMO   LC AS        OPEN  MO     LCASOP EN   M
               O  PEN   MO  LCA  SO
            OPE   NMO   L   CAS    OP
        OPENMOL  CASOP     ENMOL   CASOPE
     OPENMOLCA   SOPENMOLCASOPEN   MOLCASOPE
    OPENMOLCAS   OP           EN   MOL    CAS
    OPENMOLCAS       OP  ENM        O     LCA
    OPENMOLCAS    OPEN  MOLCASO     P  E  NMO
    OPENMOLCAS     OP               E  N  MOL
    OPENMOLCA   SO           PENM   O  L  CAS    OPEN    MO    LCAS
    OPENMOLCA   SOP           ENM   O  L  CAS   OP  EN  MOLC  AS   O
    OPENMOLCA   SOPE           NM      O  LCA   S      OP  EN MO
    OPENMOLC                AS         O  PEN   M      OL  CA  SOPE
    OPENMO        LCASOPE  NMOL        C  ASO   P      ENMOLC     AS
    OPE     NMO      LCA  SO     P     E   NM   OL  CA SO  PE N   MO
          OPENMOLCA            SOPE   NMO        LCAS  O    P  ENMO
     OPENMOLCASOPENMOLCASOPENMOLCASOPENMOLCA
        OPENMOLCASOPENMOLCASOPENMOLCASOPE
            OPENMOLCASOPENMOLCASOPENM
               OPENMOLCASOPENMOLCA        version: v23.10
                   OPENMOLCASO
                       OPE                tag:

 OpenMolcas is free software; you can redistribute it and/or modify it
 under the terms of the GNU Lesser General Public License version 2.1.
 OpenMolcas is distributed in the hope that it will be useful, but it
 is provided "as is" and without any express or implied warranties.
 For more details see the full text of the license in the file
 LICENSE or in <http://www.gnu.org/licenses/>.

                 Copyright (C) The OpenMolcas Authors
           For the author list and the recommended citation,
                   consult the file CONTRIBUTORS.md

           *************************************************
           * pymolcas version py2.25                       *
           *   build 2b27fa14244bdc32cb1957e6230cd793      *
           *   (after the EMIL interpreter by V. Veryazov) *
           *************************************************

configuration info
------------------
Host name: manganese.itc.univie.ac.at (Linux)
C Compiler ID: Clang
C flags: -std=gnu99
Fortran Compiler ID: Intel
Fortran flags: -fpp -i8 -heap-arrays
Definitions: _MOLCAS_;_I8_;_LINUX_
Parallel: OFF (GA=OFF)


   ---------------------------------------------------------------------------
  |
  |           Project: MOLCAS
  |    Submitted from: /public/manganese/scratch/tmp/sascha.925337/WORK/master
  |      Scratch area: /public/manganese/scratch/tmp/sascha.925337/WORK/master
  |   Save outputs to: WORKDIR
  |            Molcas: /usr/license/openmolcas/v23.10
  |
  | Scratch area is NOT empty
  |
  |        MOLCASMEM = 10000
  |    MOLCAS_DRIVER = /usr/license/openmolcas/v23.10/pymolcas
  |    MOLCAS_NPROCS = 1
  |    MOLCAS_SOURCE = /usr/license/openmolcas/v23.10
  | MOLCAS_STRUCTURE = 0
  |
   ---------------------------------------------------------------------------

++ ---------   Input file   ---------

&GATEWAY
COORD=MOLCAS.xyz
GROUP=NOSYM
BASIS=cc-pvdz
AMFI
angmom
0 0 0
BASLIB
/user/sascha/development/eci/sharc_main/examples/SHARC_MOLCAS/basisset

RICD
CDTHreshold=0.0001

&SEWARD

&RASSCF
SPIN=1
NACTEL=8 0 0
INACTIVE=5
RAS2=6
ITERATIONS=200,100
CIROOT=6 6 1
THRS=0.000000010000 0.000100000000 0.000100000000

>>> COPY MOLCAS.rasscf.molden MOLCAS.1.molden

&CASPT2
SHIFT=0.0
IMAGINARY= 0.000
IPEASHIFT= 0.00
MAXITER=120
XMULTISTATE= 6 1 2 3 4 5 6
OUTPUT=BRIEF
PRWF=0.1

>>> COPY MOLCAS.JobMix MOLCAS.1.JobIph

&RASSCF
SPIN=2
NACTEL=7 0 0
INACTIVE=5
RAS2=6
ITERATIONS=200,100
CIROOT=2 2 1
THRS=0.000000010000 0.000100000000 0.000100000000

>>> COPY MOLCAS.rasscf.molden MOLCAS.2.molden

&CASPT2
SHIFT=0.0
IMAGINARY= 0.000
IPEASHIFT= 0.00
MAXITER=120
XMULTISTATE= 2 1 2
OUTPUT=BRIEF
PRWF=0.1

>>> COPY MOLCAS.JobMix MOLCAS.2.JobIph

&RASSCF
SPIN=3
NACTEL=8 0 0
INACTIVE=5
RAS2=6
ITERATIONS=200,100
CIROOT=2 2 1
THRS=0.000000010000 0.000100000000 0.000100000000

>>> COPY MOLCAS.rasscf.molden MOLCAS.3.molden

&CASPT2
SHIFT=0.0
IMAGINARY= 0.000
IPEASHIFT= 0.00
MAXITER=120
XMULTISTATE= 2 1 2
OUTPUT=BRIEF
PRWF=0.1

>>> COPY MOLCAS.JobMix MOLCAS.3.JobIph

>>> COPY MOLCAS.1.JobIph JOB001

&RASSI
NROFJOBIPHS
1 6
1 2 3 4 5 6
MEIN
EJOB

>>> COPY MOLCAS.rassi.h5 MOLCAS.rassi.1.h5

>>> COPY MOLCAS.2.JobIph JOB001

&RASSI
NROFJOBIPHS
1 2
1 2
MEIN
EJOB

>>> COPY MOLCAS.rassi.h5 MOLCAS.rassi.2.h5

>>> COPY MOLCAS.3.JobIph JOB001

&RASSI
NROFJOBIPHS
1 2
1 2
MEIN
EJOB

>>> COPY MOLCAS.rassi.h5 MOLCAS.rassi.3.h5

>>> COPY MOLCAS.1.JobIph JOB001

>>> COPY MOLCAS.2.JobIph JOB002

>>> COPY MOLCAS.3.JobIph JOB003

&RASSI
NROFJOBIPHS
3 6 2 2
1 2 3 4 5 6
1 2
1 2
MEIN
EJOB
SPINORBIT
SOCOUPLING=0.0d0
EJOB

-- ----------------------------------

--- Start Module: gateway at Thu Mar 21 15:00:17 2024 ---
 
()()()()()()()()()()()()()()()()()()()()()()()()()()()()()()()()()()()()()()()()()()()()()()()()()()

                                              &GATEWAY

                                   only a single process is used
                       available to each process: 10 GB of memory, 1 thread?
                                            pid: 1516524
()()()()()()()()()()()()()()()()()()()()()()()()()()()()()()()()()()()()()()()()()()()()()()()()()()
 
 
 
 Basis Set     1 Label: S.CC-PVDZ
 Basis set is read from library:/user/sascha/development/eci/sharc_main/examples/SHARC_MOLCAS/basisset 
 
 
 Basis Set     2 Label: H.CC-PVDZ
 Basis set is read from library:/user/sascha/development/eci/sharc_main/examples/SHARC_MOLCAS/basisset 
 
++    Symmetry information:
      ---------------------
 
                    Character Table for C1 
 
                             E  
                    a        1  x, y, xy, Rz, z, xz, Ry, yz, Rx, I
--
 
 
++    Basis set information:
      ----------------------
 
 
      Basis set label: S.CC-PVDZ.........
 
      Electronic valence basis set:
      ------------------
      Associated Effective Charge  16.000000 au
      Associated Actual Charge     16.000000 au
      Nuclear Model: Point charge
 
      Shell  nPrim  nBasis  Cartesian Spherical Contaminant
         s      12       4        X                  
         p       8       3        X                  
         d       1       1                 X         
 
 
      Basis set label: H.CC-PVDZ.........
 
      Electronic valence basis set:
      ------------------
      Associated Effective Charge   1.000000 au
      Associated Actual Charge      1.000000 au
      Nuclear Model: Point charge
 
      Shell  nPrim  nBasis  Cartesian Spherical Contaminant
         s       4       2        X                  
         p       1       1        X                  
--
 
 
++    Molecular structure info:
      -------------------------
 
                    ************************************************ 
                    **** Cartesian Coordinates / Bohr, Angstrom **** 
                    ************************************************ 
 
     Center  Label                x              y              z                     x              y              z
        1      S1               0.000000       0.000000       0.001589              0.000000       0.000000       0.000841
        2      H2               0.000000       1.842103       2.235421              0.000000       0.974799       1.182934
        3      H3               0.000000      -1.842103       2.235421              0.000000      -0.974799       1.182934
 
                    *************************************** 
                    *    InterNuclear Distances / Bohr    * 
                    *************************************** 
 
               1 S1            2 H2            3 H3    
    1 S1       0.000000
    2 H2       2.895401        0.000000
    3 H3       2.895401        3.684206        0.000000
 
                    ******************************************* 
                    *    InterNuclear Distances / Angstrom    * 
                    ******************************************* 
 
               1 S1            2 H2            3 H3    
    1 S1       0.000000
    2 H2       1.532180        0.000000
    3 H3       1.532180        1.949598        0.000000
 
                    ************************************** 
                    *    Valence Bond Angles / Degree    * 
                    ************************************** 
                          Atom centers                 Phi
                      2 H2       1 S1       3 H3        79.02
--
 
 
            Nuclear Potential Energy             11.32343694 au
 
--- Stop Module: gateway at Thu Mar 21 15:00:17 2024 /rc=_RC_ALL_IS_WELL_ ---

--- Start Module: seward at Thu Mar 21 15:00:17 2024 ---
 
()()()()()()()()()()()()()()()()()()()()()()()()()()()()()()()()()()()()()()()()()()()()()()()()()()

                                              &SEWARD

                                   only a single process is used
                       available to each process: 10 GB of memory, 1 thread?
                                            pid: 1516533
()()()()()()()()()()()()()()()()()()()()()()()()()()()()()()()()()()()()()()()()()()()()()()()()()()
 
               SEWARD will generate:
                  Multipole Moment integrals up to order  2
                  Kinetic Energy integrals
                  Nuclear Attraction integrals (point charge)
                  One-Electron Hamiltonian integrals
                  Velocity integrals
                  Orbital angular momentum around ( 0.0000  0.0000  0.0000 )
                  Velocity quadrupole around ( 0.0000  0.0000  0.1341 )
                  Atomic mean-field integrals
                  RI decomposed two-electron repulsion integrals stored Cholesky style
                   - acCD auxiliary basis
                   - CD Threshold:   0.10E-03
 
                   Integrals are discarded if absolute value <: 0.10E-13
                   Integral cutoff threshold is set to       <: 0.10E-15
 
            Nuclear Potential Energy             11.32343694 au
 
 
      Basis set specifications :
      Symmetry species         a  
      Basis functions           28
 
 
      Input file to MOLDEN was generated!
 
--- Stop Module: seward at Thu Mar 21 15:00:18 2024 /rc=_RC_ALL_IS_WELL_ ---

*** symbolic link created: INPORB -> MOLCAS.GssOrb
--- Start Module: rasscf at Thu Mar 21 15:00:18 2024 ---
 
()()()()()()()()()()()()()()()()()()()()()()()()()()()()()()()()()()()()()()()()()()()()()()()()()()

                                              &RASSCF

                                   only a single process is used
                       available to each process: 10 GB of memory, 1 thread?
                                            pid: 1516536
()()()()()()()()()()()()()()()()()()()()()()()()()()()()()()()()()()()()()()()()()()()()()()()()()()
 
 
      Header of the ONEINT file:
      --------------------------
      
      Integrals generated by Gateway/Seward, Thu Mar 21 15:00:17 2024
 
 
      OrdInt status: non-squared
 
 
      Cartesian coordinates in Angstrom:
      -----------------------------------------------------
      No.  Label        X            Y            Z        
      -----------------------------------------------------
       1   S1         0.00000000   0.00000000   0.00084100
       2   H2         0.00000000   0.97479900   1.18293400
       3   H3         0.00000000  -0.97479900   1.18293400
      -----------------------------------------------------
      Nuclear repulsion energy =   11.32343694
 
++    Wave function specifications:
      -----------------------------
 
      Number of closed shell electrons          10
      Number of electrons in active shells       8
      Max number of holes in RAS1 space          0
      Max nr of electrons in RAS3 space          0
      Number of inactive orbitals                5
      Number of active orbitals                  6
      Number of secondary orbitals              17
      Spin quantum number                      0.0
      State symmetry                             1
--
 
++    Orbital specifications:
      -----------------------
 
      Symmetry species                           1
                                                 a
      Frozen orbitals                            0
      Inactive orbitals                          5
      Active orbitals                            6
      RAS1 orbitals                              0
      RAS2 orbitals                              6
      RAS3 orbitals                              0
      Secondary orbitals                        17
      Deleted orbitals                           0
      Number of basis functions                 28
--
 
++    CI expansion specifications:
      ----------------------------
 
      Number of CSFs                           105
      Number of determinants                   120
      Number of root(s) required                 6
      Root chosen for geometry opt.              6
      CI roots used                              1     2     3     4     5     6
      weights                                0.167 0.167 0.167 0.167 0.167 0.167
      highest root included in the CI            6
      max. size of the explicit Hamiltonian    105
--
 
++    Optimization specifications:
      ----------------------------
 
      RASSCF algorithm: LK RI/DF
      Maximum number of macro iterations       200
      Maximum number of SX iterations          100
      Threshold for RASSCF energy            0.100E-07
      Threshold for max MO rotation          0.100E-03
      Threshold for max BLB element          0.100E-03
      Level shift parameter                  0.500E+00
      Make Quasi-Newton update
--
 
      Orbitals from runfile: guessorb orbitals
      The MO-coefficients are taken from guessorb on runfile
 
      Total molecular charge    0.00
 
      ************************************************************************************************************************
      *                                                                                                                      *
      *                                            Wave function control section                                             *
      *                                                                                                                      *
      ************************************************************************************************************************
 
 
                                         RASSCF iterations: Energy and convergence statistics
                                         ----------------------------------------------------
 
      Iter CI   SX   CI       RASSCF       Energy    max ROT     max BLB   max BLB  Level Ln srch  Step   QN   Walltime
          iter iter root      energy       change     param      element    value   shift minimum  type update hh:mm:ss
 Nr of preliminary CI iterations:   1
        1   1   66    0  -398.36477083    0.00E+00   0.17E+00*   7  18 1  0.15E+00*  0.00   0.00    SX    NO    0:00:00
        2   1   17    0  -398.43697329   -0.72E-01* -0.70E-01*   6  13 1  0.27E-01*  0.00   0.00    SX    NO    0:00:00
        3   1   15    0  -398.44230286   -0.53E-02*  0.27E-01*  11  13 1 -0.92E-02*  0.00   0.00    SX    NO    0:00:00
        4   1   14    0  -398.44296396   -0.66E-03*  0.12E-01*  11  13 1 -0.38E-02*  0.00   0.00    SX    NO    0:00:00
        5   1   14    0  -398.44306803   -0.10E-03*  0.79E-02*  11  13 1 -0.16E-02*  0.00   1.69    LS   YES    0:00:00
        6   1   11    0  -398.44308867   -0.21E-04*  0.42E-03*   9  25 1  0.35E-03*  0.00   1.02    QN   YES    0:00:00
        7   1   10    0  -398.44308901   -0.34E-06*  0.11E-03*   7  12 1  0.53E-04   0.00   1.15    QN   YES    0:00:00
        8   1    6    0  -398.44308903   -0.20E-07*  0.19E-04   11  14 1  0.70E-05   0.00   1.06    QN   YES    0:00:00
        9   1    5    0  -398.44308903   -0.33E-09   0.48E-05    6  13 1  0.23E-05   0.00   1.27    QN   YES    0:00:00
      Convergence after  9 iterations
       10   1    5    0  -398.44308903   -0.16E-10   0.48E-05    9  15 1  0.26E-06   0.00   1.27    QN   YES    0:00:00
 
      ************************************************************************************************************************
                                                      Wave function printout:
                       occupation of active orbitals, and spin coupling of open shells (u,d: Spin up or down)
      ************************************************************************************************************************
 
      Note: transformation to natural orbitals
      has been made, which may change the order of the CSFs.
 
      printout of CI-coefficients larger than  0.05 for root  1
      energy=    -398.691538
      conf/sym  111111     Coeff  Weight
             1  222200  -0.97171 0.94422
             9  22u20d   0.08307 0.00690
            15  2u22d0   0.10924 0.01193
            31  220220   0.07716 0.00595
            34  220202   0.05745 0.00330
            38  2ud2ud   0.10920 0.01192
            49  202220   0.09391 0.00882
 
      printout of CI-coefficients larger than  0.05 for root  2
      energy=    -398.508200
      conf/sym  111111     Coeff  Weight
             2  222ud0   0.97539 0.95140
            10  22udud   0.10906 0.01189
            11  22uudd  -0.06609 0.00437
            16  2u2d20   0.08872 0.00787
            21  2u2d02   0.07661 0.00587
            26  u22dud   0.06186 0.00383
            35  220ud2  -0.06540 0.00428
            39  2udu2d  -0.07174 0.00515
 
      printout of CI-coefficients larger than  0.05 for root  3
      energy=    -398.478575
      conf/sym  111111     Coeff  Weight
             4  222u0d  -0.96184 0.92514
             8  22ud20  -0.11302 0.01277
            13  22ud02  -0.06602 0.00436
            18  2u2dud  -0.16520 0.02729
            29  u22d02  -0.05497 0.00302
            33  220u2d  -0.06937 0.00481
            41  2udud2  -0.07864 0.00618
            51  202u2d  -0.10588 0.01121
 
      printout of CI-coefficients larger than  0.05 for root  4
      energy=    -398.351924
      conf/sym  111111     Coeff  Weight
             3  222020   0.07944 0.00631
             9  22u20d  -0.74345 0.55272
            15  2u22d0   0.59730 0.35677
            25  u2220d   0.05304 0.00281
            31  220220  -0.17634 0.03110
            38  2ud2ud  -0.05383 0.00290
            43  u2d220  -0.07936 0.00630
            46  u2d202   0.05187 0.00269
            49  202220  -0.06216 0.00386
            52  202202   0.13930 0.01940
            56  ud22ud   0.06234 0.00389
 
      printout of CI-coefficients larger than  0.05 for root  5
      energy=    -398.345878
      conf/sym  111111     Coeff  Weight
             7  22u2d0   0.67353 0.45365
            17  2u220d  -0.67543 0.45621
            32  2202ud   0.13691 0.01875
            37  2ud220  -0.14811 0.02194
            40  2ud202   0.15180 0.02304
            50  2022ud  -0.10075 0.01015
            55  ud2220  -0.07399 0.00547
            76  2u022d   0.05466 0.00299
 
      printout of CI-coefficients larger than  0.05 for root  6
      energy=    -398.282419
      conf/sym  111111     Coeff  Weight
             7  22u2d0   0.69812 0.48737
            17  2u220d   0.69811 0.48736
            32  2202ud   0.05682 0.00323
            44  u2d2ud  -0.07321 0.00536
            55  ud2220  -0.07082 0.00502
            76  2u022d  -0.07051 0.00497
 
      Natural orbitals and occupation numbers for root  1
      sym 1:   1.997304   1.961193   1.964608   1.998624   0.048336   0.029935
 
      Natural orbitals and occupation numbers for root  2
      sym 1:   1.998912   1.986432   1.961516   1.000000   0.999157   0.053982
 
      Natural orbitals and occupation numbers for root  3
      sym 1:   1.998795   1.940168   1.971877   1.000000   0.096915   0.992244
 
      Natural orbitals and occupation numbers for root  4
      sym 1:   1.977020   1.582919   1.363576   1.983678   0.471470   0.621338
 
      Natural orbitals and occupation numbers for root  5
      sym 1:   1.992380   1.465189   1.450376   1.997413   0.550774   0.543869
 
      Natural orbitals and occupation numbers for root  6
      sym 1:   1.990636   1.498251   1.485250   1.998508   0.523339   0.504015
 
      ************************************************************************************************************************
      *                                                                                                                      *
      *                                                    Final results                                                     *
      *                                                                                                                      *
      ************************************************************************************************************************
 
 
++    Wave function specifications:
      -----------------------------
 
      Number of closed shell electrons          10
      Number of electrons in active shells       8
      Max number of holes in RAS1 space          0
      Max nr of electrons in RAS3 space          0
      Number of inactive orbitals                5
      Number of active orbitals                  6
      Number of secondary orbitals              17
      Spin quantum number                      0.0
      State symmetry                             1
--
 
++    Orbital specifications:
      -----------------------
 
      Symmetry species                           1
                                                 a
      Frozen orbitals                            0
      Inactive orbitals                          5
      Active orbitals                            6
      RAS1 orbitals                              0
      RAS2 orbitals                              6
      RAS3 orbitals                              0
      Secondary orbitals                        17
      Deleted orbitals                           0
      Number of basis functions                 28
--
 
++    CI expansion specifications:
      ----------------------------
 
      Number of CSFs                           105
      Number of determinants                   120
      Number of root(s) required                 6
      CI roots used                              1     2     3     4     5     6
      weights                                0.167 0.167 0.167 0.167 0.167 0.167
      highest root included in the CI            6
      Root passed to geometry opt.               6
--
 
++    Final optimization conditions:
      ------------------------------
 
      Average CI energy                            -398.44308903
      RASSCF energy for state  6                   -398.28241941
      Super-CI energy                                -0.00000000
      RASSCF energy change                           -0.00000000
      Max change in MO coefficients              -0.396E-05
      Max non-diagonal density matrix element     0.476E-05
      Maximum BLB matrix element                  0.257E-06
      (orbital pair   9,  15 in symmetry   1)
      Norm of electronic gradient            0.933E-01
--
 
 
      Final state energy(ies):
      ------------------------
 
::    RASSCF root number  1 Total energy:   -398.69153830
::    RASSCF root number  2 Total energy:   -398.50819964
::    RASSCF root number  3 Total energy:   -398.47857529
::    RASSCF root number  4 Total energy:   -398.35192376
::    RASSCF root number  5 Total energy:   -398.34587777
::    RASSCF root number  6 Total energy:   -398.28241941
 
++    Molecular orbitals:
      -------------------
 
      Pseudonatural active orbitals and approximate occupation numbers
 
 
 
 
      Molecular orbitals for symmetry species 1: a  
 
 
      Orbital                 1         2         3         4         5         6         7         8         9        10
      Energy           -92.0134   -9.0136   -6.6934   -6.6932   -6.6914   -0.9183    0.0000    0.0000    0.0011   -0.0000
      Occ. No.           2.0000    2.0000    2.0000    2.0000    2.0000    1.9891    1.7355    1.6993    1.6630    0.4519
 
     1 S1     1s         1.0000    0.0002    0.0000    0.0000   -0.0000    0.0008    0.0000    0.0011    0.0000   -0.0000
     2 S1     2s         0.0001    1.0012   -0.0024   -0.0000   -0.0000    0.0061    0.0000    0.0030    0.0000   -0.0000
     3 S1     3s         0.0003    0.0016    0.0023    0.0000    0.0000    0.9302   -0.0000   -0.3234    0.0000    0.0000
     4 S1     *s        -0.0002   -0.0049   -0.0013   -0.0000    0.0000   -0.0461   -0.0000   -0.1076   -0.0000    0.0000
     5 S1     2px       -0.0000    0.0000    0.0000   -0.0000    0.9999   -0.0000   -0.0000    0.0000   -0.0028   -0.0000
     6 S1     3px       -0.0000    0.0000   -0.0000    0.0000   -0.0005    0.0000   -0.0000   -0.0000    0.9732   -0.0000
     7 S1     *px        0.0000   -0.0000    0.0000   -0.0000    0.0009   -0.0000    0.0000   -0.0000    0.0249    0.0000
     8 S1     2py        0.0000    0.0000   -0.0000    1.0000    0.0000   -0.0000   -0.0062    0.0000   -0.0000    0.0058
     9 S1     3py        0.0000    0.0000   -0.0000    0.0013    0.0000   -0.0000    0.7501   -0.0000   -0.0000    0.7027
    10 S1     *py       -0.0000   -0.0000    0.0000   -0.0007   -0.0000    0.0000   -0.0927    0.0000    0.0000    0.3131
    11 S1     2pz        0.0000    0.0030    1.0000    0.0000   -0.0000   -0.0048   -0.0000   -0.0078    0.0000    0.0000
    12 S1     3pz        0.0001    0.0017    0.0015    0.0000   -0.0000    0.1042    0.0000    0.7628    0.0000    0.0000
    13 S1     *pz       -0.0001   -0.0030   -0.0007   -0.0000    0.0000   -0.0336   -0.0000   -0.0698   -0.0000    0.0000
    14 S1     *d2-       0.0000   -0.0000   -0.0000    0.0000    0.0000    0.0000    0.0000    0.0000    0.0000   -0.0000
    15 S1     *d1-       0.0000    0.0000    0.0000    0.0004    0.0000   -0.0000    0.0644   -0.0000   -0.0000   -0.1018
    16 S1     *d0        0.0000    0.0001    0.0003   -0.0000    0.0000    0.0088    0.0000    0.0292    0.0000   -0.0000
    17 S1     *d1+      -0.0000   -0.0000    0.0000   -0.0000    0.0002   -0.0000    0.0000    0.0000    0.0171    0.0000
    18 S1     *d2+      -0.0000   -0.0001   -0.0001   -0.0000    0.0000   -0.0077   -0.0000   -0.0191   -0.0000    0.0000
    19 H2     1s         0.0000   -0.0007    0.0010    0.0005   -0.0000    0.2191    0.4549    0.3789    0.0000   -0.5657
    20 H2     *s         0.0001    0.0021   -0.0003   -0.0001   -0.0000   -0.0927   -0.0874   -0.0901   -0.0000   -0.3835
    21 H2     *px        0.0000    0.0000    0.0000   -0.0000    0.0000   -0.0000    0.0000   -0.0000    0.0143    0.0000
    22 H2     *py        0.0000    0.0004   -0.0000   -0.0000    0.0000   -0.0130   -0.0075   -0.0180    0.0000    0.0024
    23 H2     *pz        0.0000    0.0005   -0.0001   -0.0000    0.0000   -0.0138   -0.0208   -0.0076    0.0000   -0.0094
    24 H3     1s         0.0000   -0.0007    0.0010   -0.0005   -0.0000    0.2191   -0.4549    0.3789    0.0000    0.5657
    25 H3     *s         0.0001    0.0021   -0.0003    0.0001    0.0000   -0.0927    0.0874   -0.0901    0.0000    0.3835
    26 H3     *px        0.0000    0.0000   -0.0000   -0.0000    0.0000    0.0000   -0.0000    0.0000    0.0143    0.0000
    27 H3     *py       -0.0000   -0.0004    0.0000   -0.0000    0.0000    0.0130   -0.0075    0.0180    0.0000    0.0024
    28 H3     *pz        0.0000    0.0005   -0.0001    0.0000    0.0000   -0.0138    0.0208   -0.0076   -0.0000    0.0094
 
 
      Orbital                11
      Energy             0.0099
      Occ. No.           0.4613
 
     1 S1     1s         0.0062
     2 S1     2s         0.0324
     3 S1     3s        -0.3069
     4 S1     *s        -0.6163
     5 S1     2px       -0.0000
     6 S1     3px       -0.0000
     7 S1     *px        0.0000
     8 S1     2py        0.0000
     9 S1     3py        0.0000
    10 S1     *py        0.0000
    11 S1     2pz       -0.0107
    12 S1     3pz       -0.6760
    13 S1     *pz       -0.3466
    14 S1     *d2-      -0.0000
    15 S1     *d1-      -0.0000
    16 S1     *d0        0.0229
    17 S1     *d1+       0.0000
    18 S1     *d2+      -0.0180
    19 H2     1s         0.4166
    20 H2     *s         0.5390
    21 H2     *px        0.0000
    22 H2     *py        0.0064
    23 H2     *pz        0.0125
    24 H3     1s         0.4166
    25 H3     *s         0.5390
    26 H3     *px        0.0000
    27 H3     *py       -0.0064
    28 H3     *pz        0.0125
--
 
      Von Neumann Entropy (Root   1) =  0.27649
 

      Mulliken population analysis for root number:  1
      -----------------------------------------------
 
 
++    Molecular charges:
      ------------------
 
      Mulliken charges per centre and basis function type
      ---------------------------------------------------
 
                S1      H2      H3    
      1s       2.0000  1.1055  1.1055
      2s       2.0025  0.0000  0.0000
      2px      1.9998  0.0000  0.0000
      2pz      2.0001  0.0000  0.0000
      2py      2.0001  0.0000  0.0000
      3s       1.9412  0.0000  0.0000
      3px      1.9441  0.0000  0.0000
      3pz      1.3253  0.0000  0.0000
      3py      1.2057  0.0000  0.0000
      *s      -0.0665 -0.1819 -0.1819
      *px      0.0449  0.0045  0.0045
      *pz     -0.1614  0.0111  0.0111
      *py     -0.1816  0.0083  0.0083
      *d2+     0.0040  0.0000  0.0000
      *d1+     0.0007  0.0000  0.0000
      *d0      0.0072  0.0000  0.0000
      *d1-     0.0389  0.0000  0.0000
      *d2-     0.0000  0.0000  0.0000
      Total   16.1051  0.9475  0.9475
 
      N-E     -0.1051  0.0525  0.0525
 
      Total electronic charge=   18.000000
 
      Total            charge=   -0.000000
--
 
 

      Expectation values of various properties for root number:  1
      -----------------------------------------------------------
 
 
++    Molecular properties:
      ---------------------
 
      Charge (e):
                      =   -0.0000
      Dipole Moment (Debye):
      Origin of the operator (Ang)=    0.0000    0.0000    0.0000
                   X=  5.6145E-12               Y=  3.4331E-10               Z=  9.1922E-01           Total=  9.1922E-01
      Quadrupole Moment (Debye*Ang):
      Origin of the operator (Ang)=    0.0000    0.0000    0.0709
                  XX= -1.6707E+01              XY= -2.1683E-12              XZ=  1.7288E-12              YY= -1.3273E+01
                  YZ= -8.2464E-10              ZZ= -1.3041E+01
      In traceless form (Debye*Ang)
                  XX= -3.5495E+00              XY= -3.2525E-12              XZ=  2.5933E-12              YY=  1.6005E+00
                  YZ= -1.2370E-09              ZZ=  1.9490E+00
--
 
      Von Neumann Entropy (Root   2) =  1.17888
 

      Mulliken population analysis for root number:  2
      -----------------------------------------------
 
 
++    Molecular charges:
      ------------------
 
      Mulliken charges per centre and basis function type
      ---------------------------------------------------
 
                S1      H2      H3    
      1s       2.0000  1.1602  1.1602
      2s       2.0025  0.0000  0.0000
      2px      1.9998  0.0000  0.0000
      2pz      2.0001  0.0000  0.0000
      2py      2.0001  0.0000  0.0000
      3s       1.9513  0.0000  0.0000
      3px      0.9727  0.0000  0.0000
      3pz      1.4150  0.0000  0.0000
      3py      1.7236  0.0000  0.0000
      *s      -0.0492 -0.1498 -0.1498
      *px      0.0225  0.0023  0.0023
      *pz     -0.1321  0.0144  0.0144
      *py     -0.0557  0.0088  0.0088
      *d2+     0.0036  0.0000  0.0000
      *d1+     0.0004  0.0000  0.0000
      *d0      0.0066  0.0000  0.0000
      *d1-     0.0669  0.0000  0.0000
      *d2-     0.0000  0.0000  0.0000
      Total   15.9281  1.0359  1.0359
 
      N-E      0.0719 -0.0359 -0.0359
 
      Total electronic charge=   18.000000
 
      Total            charge=   -0.000000
--
 
 

      Expectation values of various properties for root number:  2
      -----------------------------------------------------------
 
 
++    Molecular properties:
      ---------------------
 
      Charge (e):
                      =   -0.0000
      Dipole Moment (Debye):
      Origin of the operator (Ang)=    0.0000    0.0000    0.0000
                   X= -2.7448E-12               Y=  1.7311E-08               Z= -1.9428E-02           Total=  1.9428E-02
      Quadrupole Moment (Debye*Ang):
      Origin of the operator (Ang)=    0.0000    0.0000    0.0709
                  XX= -1.4008E+01              XY=  1.7300E-11              XZ= -5.0708E-12              YY= -1.6871E+01
                  YZ=  4.0388E-08              ZZ= -1.6417E+01
      In traceless form (Debye*Ang)
                  XX=  2.6359E+00              XY=  2.5949E-11              XZ= -7.6062E-12              YY= -1.6591E+00
                  YZ=  6.0581E-08              ZZ= -9.7683E-01
--
 
      Von Neumann Entropy (Root   3) =  1.27683
 

      Mulliken population analysis for root number:  3
      -----------------------------------------------
 
 
++    Molecular charges:
      ------------------
 
      Mulliken charges per centre and basis function type
      ---------------------------------------------------
 
                S1      H2      H3    
      1s       2.0000  1.1049  1.1049
      2s       2.0024  0.0000  0.0000
      2px      1.9998  0.0000  0.0000
      2pz      2.0001  0.0000  0.0000
      2py      2.0001  0.0000  0.0000
      3s       1.9770  0.0000  0.0000
      3px      0.9727  0.0000  0.0000
      3pz      1.6999  0.0000  0.0000
      3py      1.3751  0.0000  0.0000
      *s      -0.0752 -0.0416 -0.0416
      *px      0.0225  0.0023  0.0023
      *pz     -0.0706  0.0157  0.0157
      *py     -0.1347  0.0109  0.0109
      *d2+     0.0054  0.0000  0.0000
      *d1+     0.0004  0.0000  0.0000
      *d0      0.0091  0.0000  0.0000
      *d1-     0.0316  0.0000  0.0000
      *d2-     0.0000  0.0000  0.0000
      Total   15.8158  1.0921  1.0921
 
      N-E      0.1842 -0.0921 -0.0921
 
      Total electronic charge=   18.000000
 
      Total            charge=   -0.000000
--
 
 

      Expectation values of various properties for root number:  3
      -----------------------------------------------------------
 
 
++    Molecular properties:
      ---------------------
 
      Charge (e):
                      =   -0.0000
      Dipole Moment (Debye):
      Origin of the operator (Ang)=    0.0000    0.0000    0.0000
                   X= -2.0421E-12               Y= -3.7891E-10               Z= -1.1945E+00           Total=  1.1945E+00
      Quadrupole Moment (Debye*Ang):
      Origin of the operator (Ang)=    0.0000    0.0000    0.0709
                  XX= -1.4459E+01              XY= -2.6770E-12              XZ= -4.0199E-12              YY= -1.6936E+01
                  YZ= -1.4146E-08              ZZ= -1.8846E+01
      In traceless form (Debye*Ang)
                  XX=  3.4315E+00              XY= -4.0155E-12              XZ= -6.0299E-12              YY= -2.8333E-01
                  YZ= -2.1219E-08              ZZ= -3.1481E+00
--
 
      Von Neumann Entropy (Root   4) =  1.68742
 

      Mulliken population analysis for root number:  4
      -----------------------------------------------
 
 
++    Molecular charges:
      ------------------
 
      Mulliken charges per centre and basis function type
      ---------------------------------------------------
 
                S1      H2      H3    
      1s       2.0000  1.0040  1.0040
      2s       2.0024  0.0000  0.0000
      2px      1.9998  0.0000  0.0000
      2pz      2.0001  0.0000  0.0000
      2py      2.0001  0.0000  0.0000
      3s       1.8808  0.0000  0.0000
      3px      1.9296  0.0000  0.0000
      3pz      1.1374  0.0000  0.0000
      3py      1.2049  0.0000  0.0000
      *s      -0.0875 -0.0327 -0.0327
      *px      0.0445  0.0045  0.0045
      *pz     -0.0730  0.0133  0.0133
      *py     -0.0893  0.0084  0.0084
      *d2+     0.0040  0.0000  0.0000
      *d1+     0.0007  0.0000  0.0000
      *d0      0.0068  0.0000  0.0000
      *d1-     0.0437  0.0000  0.0000
      *d2-     0.0000  0.0000  0.0000
      Total   16.0051  0.9974  0.9974
 
      N-E     -0.0051  0.0026  0.0026
 
      Total electronic charge=   18.000000
 
      Total            charge=   -0.000000
--
 
 

      Expectation values of various properties for root number:  4
      -----------------------------------------------------------
 
 
++    Molecular properties:
      ---------------------
 
      Charge (e):
                      =   -0.0000
      Dipole Moment (Debye):
      Origin of the operator (Ang)=    0.0000    0.0000    0.0000
                   X=  8.6631E-12               Y=  1.0262E-07               Z= -3.7520E-01           Total=  3.7520E-01
      Quadrupole Moment (Debye*Ang):
      Origin of the operator (Ang)=    0.0000    0.0000    0.0709
                  XX= -1.7069E+01              XY= -3.0652E-12              XZ= -1.8451E-12              YY= -1.5655E+01
                  YZ=  2.7771E-07              ZZ= -1.5962E+01
      In traceless form (Debye*Ang)
                  XX= -1.2610E+00              XY= -4.5978E-12              XZ= -2.7676E-12              YY=  8.6085E-01
                  YZ=  4.1656E-07              ZZ=  4.0018E-01
--
 
      Von Neumann Entropy (Root   5) =  1.69562
 

      Mulliken population analysis for root number:  5
      -----------------------------------------------
 
 
++    Molecular charges:
      ------------------
 
      Mulliken charges per centre and basis function type
      ---------------------------------------------------
 
                S1      H2      H3    
      1s       2.0000  0.9909  0.9909
      2s       2.0024  0.0000  0.0000
      2px      1.9998  0.0000  0.0000
      2pz      2.0001  0.0000  0.0000
      2py      2.0001  0.0000  0.0000
      3s       1.9404  0.0000  0.0000
      3px      1.9430  0.0000  0.0000
      3pz      1.1597  0.0000  0.0000
      3py      1.1176  0.0000  0.0000
      *s      -0.0610 -0.0372 -0.0372
      *px      0.0449  0.0045  0.0045
      *pz     -0.0813  0.0126  0.0126
      *py     -0.0820  0.0083  0.0083
      *d2+     0.0039  0.0000  0.0000
      *d1+     0.0007  0.0000  0.0000
      *d0      0.0067  0.0000  0.0000
      *d1-     0.0468  0.0000  0.0000
      *d2-     0.0000  0.0000  0.0000
      Total   16.0417  0.9791  0.9791
 
      N-E     -0.0417  0.0209  0.0209
 
      Total electronic charge=   18.000000
 
      Total            charge=   -0.000000
--
 
 

      Expectation values of various properties for root number:  5
      -----------------------------------------------------------
 
 
++    Molecular properties:
      ---------------------
 
      Charge (e):
                      =   -0.0000
      Dipole Moment (Debye):
      Origin of the operator (Ang)=    0.0000    0.0000    0.0000
                   X=  7.7670E-12               Y= -8.8864E-08               Z= -8.1182E-03           Total=  8.1182E-03
      Quadrupole Moment (Debye*Ang):
      Origin of the operator (Ang)=    0.0000    0.0000    0.0709
                  XX= -1.7107E+01              XY=  1.4281E-12              XZ=  8.1187E-13              YY= -1.5351E+01
                  YZ= -2.5357E-07              ZZ= -1.5933E+01
      In traceless form (Debye*Ang)
                  XX= -1.4648E+00              XY=  2.1421E-12              XZ=  1.2178E-12              YY=  1.1692E+00
                  YZ= -3.8035E-07              ZZ=  2.9555E-01
--
 
      Von Neumann Entropy (Root   6) =  1.64602
 

      Mulliken population analysis for root number:  6
      -----------------------------------------------
 
 
++    Molecular charges:
      ------------------
 
      Mulliken charges per centre and basis function type
      ---------------------------------------------------
 
                S1      H2      H3    
      1s       2.0000  1.0072  1.0072
      2s       2.0024  0.0000  0.0000
      2px      1.9998  0.0000  0.0000
      2pz      2.0001  0.0000  0.0000
      2py      2.0001  0.0000  0.0000
      3s       1.8656  0.0000  0.0000
      3px      1.9440  0.0000  0.0000
      3pz      1.2034  0.0000  0.0000
      3py      1.1799  0.0000  0.0000
      *s      -0.1336 -0.0351 -0.0351
      *px      0.0449  0.0045  0.0045
      *pz     -0.0820  0.0124  0.0124
      *py     -0.0744  0.0083  0.0083
      *d2+     0.0040  0.0000  0.0000
      *d1+     0.0007  0.0000  0.0000
      *d0      0.0068  0.0000  0.0000
      *d1-     0.0436  0.0000  0.0000
      *d2-     0.0000  0.0000  0.0000
      Total   16.0055  0.9973  0.9973
 
      N-E     -0.0055  0.0027  0.0027
 
      Total electronic charge=   18.000000
 
      Total            charge=   -0.000000
--
 
 

      Expectation values of various properties for root number:  6
      -----------------------------------------------------------
 
 
++    Molecular properties:
      ---------------------
 
      Charge (e):
                      =   -0.0000
      Dipole Moment (Debye):
      Origin of the operator (Ang)=    0.0000    0.0000    0.0000
                   X=  7.8164E-12               Y=  1.5993E-08               Z=  3.6480E-01           Total=  3.6480E-01
      Quadrupole Moment (Debye*Ang):
      Origin of the operator (Ang)=    0.0000    0.0000    0.0709
                  XX= -1.7067E+01              XY=  2.9849E-12              XZ=  3.4540E-13              YY= -1.5251E+01
                  YZ=  4.4593E-08              ZZ= -1.5770E+01
      In traceless form (Debye*Ang)
                  XX= -1.5569E+00              XY=  4.4773E-12              XZ=  5.1810E-13              YY=  1.1678E+00
                  YZ=  6.6890E-08              ZZ=  3.8913E-01
--
 
 
      Input file to MOLDEN was generated!
 
 
      Input file to MOLDEN was generated!
 
 
      Input file to MOLDEN was generated!
 
 
      Input file to MOLDEN was generated!
 
 
      Input file to MOLDEN was generated!
 
 
      Input file to MOLDEN was generated!
 
 
      Input file to MOLDEN was generated!
 
      Average orbitals are written to the RASORB file
      Natural orbitals for root   1 are written to the RASORB.1 file
      Natural orbitals for root   2 are written to the RASORB.2 file
      Natural orbitals for root   3 are written to the RASORB.3 file
      Natural orbitals for root   4 are written to the RASORB.4 file
      Natural orbitals for root   5 are written to the RASORB.5 file
      Natural orbitals for root   6 are written to the RASORB.6 file
      Spin density orbitals for root   1 are written to the SPDORB.1 file
      Spin density orbitals for root   2 are written to the SPDORB.2 file
      Spin density orbitals for root   3 are written to the SPDORB.3 file
      Spin density orbitals for root   4 are written to the SPDORB.4 file
      Spin density orbitals for root   5 are written to the SPDORB.5 file
      Spin density orbitals for root   6 are written to the SPDORB.6 file
 
--- Stop Module: rasscf at Thu Mar 21 15:00:21 2024 /rc=_RC_ALL_IS_WELL_ ---
--- Module rasscf spent 2 seconds ---

>>> COPY MOLCAS.rasscf.molden MOLCAS.1.molden

*** symbolic link created: INPORB -> MOLCAS.RasOrb
--- Start Module: caspt2 at Thu Mar 21 15:00:21 2024 ---
 
()()()()()()()()()()()()()()()()()()()()()()()()()()()()()()()()()()()()()()()()()()()()()()()()()()

                                              &CASPT2

                                   only a single process is used
                       available to each process: 10 GB of memory, 1 thread?
                                            pid: 1516559
()()()()()()()()()()()()()()()()()()()()()()()()()()()()()()()()()()()()()()()()()()()()()()()()()()
 
 
++    Wave function specifications:
      -----------------------------
 
      Number of closed shell electrons           0
      Number of electrons in active shells       8
      Max number of holes in RAS1 space          0
      Max number of electrons in RAS3 space      0
      Number of inactive orbitals                0
      Number of active orbitals                  6
      Number of secondary orbitals              17
      Spin quantum number                      0.0
      State symmetry                             1
      Number of CSFs                           105
      Number of CASSCF root(s) available         6
      CASPT2 state passed to geometry opt.       6
      A file JOBMIX will be created
      This is a MULTI-STATE CASSCF reference
      Number of CI roots used                    6
      These are:                                 1   2   3   4   5   6
      Off-diagonal elements of Heff are computed
--
 
++    Orbital specifications:
      -----------------------
 
      Symmetry species                           1
                                                 a
      Frozen orbitals                            5
      Inactive orbitals                          0
      Active orbitals                            6
      Secondary orbitals                        17
      Deleted orbitals                           0
      Number of basis functions                 28
--
 
++    CASPT2 specifications:
      ----------------------
 
      Type of calculation                        XMS-CASPT2
      Fock operator                              state-average
      IPEA shift                                 0.00
      Real shift                                 0.00
      Imaginary shift                            0.00
      The input orbitals will be transformed to quasi-canonical
      The input states will be rotated to diagonalize the Fock operator
--
 
--------------------------------------------------------------------------------
 Estimated memory requirements:
  POLY3 :                   257654
  RHS:                      259460
  SIGMA :                   264688
  PRPCTL:                        0
 Available workspace:   1124990452
 
++ CASPT2 computation for group   1
 
********************************************************************************
 Multi-State initialization phase begins for group   1
--------------------------------------------------------------------------------
 
  H0 in the original model space basis:
                1               2               3               4               5
   1       -4.50784851     -0.00000000      0.00000000     -0.01396179     -0.00000000
   2       -0.00000000     -4.11808405      0.00000000      0.00000000      0.00000000
   3        0.00000000      0.00000000     -4.08000214     -0.00000000      0.00000000
   4       -0.01396179      0.00000000     -0.00000000     -3.95717109      0.00000000
   5       -0.00000000      0.00000000      0.00000000      0.00000000     -3.96093596
   6        0.00000000      0.00000000      0.00000000      0.00000000     -0.01375373
 
                6
   1        0.00000000
   2        0.00000000
   3        0.00000000
   4        0.00000000
   5       -0.01375373
   6       -3.99215724
 
  H0 eigenvectors:
                1               2               3               4               5
   1        0.99967916     -0.00000000      0.00000000     -0.02532944     -0.00000000
   2        0.00000000      1.00000000      0.00000001      0.00000000      0.00000000
   3       -0.00000000     -0.00000001      1.00000000     -0.00000000     -0.00000000
   4        0.02532944     -0.00000000      0.00000000      0.99967916      0.00000011
   5        0.00000000     -0.00000000     -0.00000000     -0.00000009      0.93550073
   6       -0.00000000     -0.00000000     -0.00000000      0.00000005     -0.35332475
 
                6
   1        0.00000000
   2        0.00000000
   3        0.00000000
   4       -0.00000001
   5        0.35332475
   6        0.93550073
 
********************************************************************************
 Compute H0 matrices for state    1
--------------------------------------------------------------------------------
--------------------------------------------------------------------------------
 H0 matrices have been computed.
 
********************************************************************************
  CASPT2 EQUATION SOLUTION
--------------------------------------------------------------------------------
 
  Total nr of CASPT2 parameters:
   Before reduction:        8925
   After  reduction:        8466
 
 Variance of |WF0>:       0.3243424202
 
 The contributions to the second order correlation energy in atomic units.
-----------------------------------------------------------------------------------------------------------------------------
  IT.      VJTU        VJTI        ATVX        AIVX        VJAI        BVAT        BJAT        BJAI        TOTAL       RNORM  
-----------------------------------------------------------------------------------------------------------------------------
   1     0.000000    0.000000   -0.046722    0.000000    0.000000   -0.086812    0.000000    0.000000   -0.133534    0.000401
   2     0.000000    0.000000   -0.046767    0.000000    0.000000   -0.086815    0.000000    0.000000   -0.133582    0.000011
-----------------------------------------------------------------------------------------------------------------------------
 
  FINAL CASPT2 RESULT:
 
      Reference energy:        -398.6915383016
      E2 (Non-variational):      -0.1335826004
      E2 (Variational):          -0.1335825822
      Total energy:            -398.8251208839
      Residual norm:              0.0000003280
      Reference weight:           0.94404
 
      Contributions to the CASPT2 correlation energy
      Active & Virtual Only:         -0.1335826004
      One Inactive Excited:           0.0000000000
      Two Inactive Excited:           0.0000000000
 
 
++ Denominators, etc.
--------------------------------------------------------------------------------------------------------------
 Report on small energy denominators, large coefficients, and large energy contributions.
CASE  SYMM ACTIVE-MIX  NON-ACTIVE INDICES          DENOMINATOR     RHS VALUE       COEFFICIENT     CONTRIBUTION
ATVX     1  Mu1.0016  Se1.013                       1.52370418      0.05043424     -0.03257156     -0.00164272
ATVX     1  Mu1.0017  Se1.014                       1.61049360     -0.04153826      0.02534169     -0.00105265
ATVX     1  Mu1.0008  Se1.015                       1.50903875     -0.04972517      0.03222424     -0.00160236
ATVX     1  Mu1.0010  Se1.015                       1.51696430      0.04124087     -0.02616296     -0.00107898
ATVX     1  Mu1.0016  Se1.016                       1.68188823      0.04501893     -0.02662622     -0.00119868
ATVX     1  Mu1.0017  Se1.016                       1.68188823     -0.05739328      0.03405315     -0.00195442
ATVX     1  Mu1.0019  Se1.017                       1.70885831     -0.04462445      0.02564271     -0.00114429
ATVX     1  Mu1.0008  Se1.018                       1.59341351     -0.04353409      0.02731876     -0.00118930
ATVX     1  Mu1.0010  Se1.018                       1.60133905      0.04257100     -0.02624982     -0.00111748
ATVX     1  Mu1.0006  Se1.019                       1.59482791     -0.06611672      0.04137147     -0.00273535
ATVX     1  Mu1.0032  Se1.019                       2.07525147      0.05420182     -0.02585176     -0.00140121
ATVX     1  Mu1.0051  Se1.021                       2.48087784      0.07674546     -0.03072206     -0.00235778
BVATP    1  Mu1.0005  Se1.013 Se1.012               1.99288229     -0.05252557      0.02598950     -0.00136511
BVATP    1  Mu1.0002  Se1.015 Se1.014               2.12548054     -0.05496583      0.02550091     -0.00140168
BVATP    1  Mu1.0001  Se1.015 Se1.015               2.03160374      0.07406504     -0.03628916     -0.00268776
BVATP    1  Mu1.0006  Se1.016 Se1.016               2.37835253      0.06520104     -0.02739633     -0.00178627
BVATP    1  Mu1.0001  Se1.018 Se1.018               2.20035324      0.07686992     -0.03493513     -0.00268546
BVATP    1  Mu1.0001  Se1.019 Se1.019               2.22546894      0.07746905     -0.03481021     -0.00269671
BVATP    1  Mu1.0001  Se1.020 Se1.013               2.03204677      0.05041808     -0.02511443     -0.00126622
BVATM    1  Mu1.0001  Se1.015 Se1.014               2.12548054     -0.06326836      0.02904633     -0.00183771
BVATM    1  Mu1.0001  Se1.018 Se1.013               2.12306587      0.08552306     -0.03981417     -0.00340503
BVATM    1  Mu1.0002  Se1.019 Se1.013               2.14159233     -0.06340640      0.02931919     -0.00185902
BVATM    1  Mu1.0002  Se1.019 Se1.016               2.29977637     -0.07038480      0.03056114     -0.00215104
--
 
   (Skipping property calculation,
    use PROP keyword to activate)
********************************************************************************
 Compute H0 matrices for state    2
--------------------------------------------------------------------------------
--------------------------------------------------------------------------------
 H0 matrices have been computed.
 
********************************************************************************
  CASPT2 EQUATION SOLUTION
--------------------------------------------------------------------------------
 
  Total nr of CASPT2 parameters:
   Before reduction:        8925
   After  reduction:        7820
 
 Variance of |WF0>:       0.3231110124
 
 The contributions to the second order correlation energy in atomic units.
-----------------------------------------------------------------------------------------------------------------------------
  IT.      VJTU        VJTI        ATVX        AIVX        VJAI        BVAT        BJAT        BJAI        TOTAL       RNORM  
-----------------------------------------------------------------------------------------------------------------------------
   1     0.000000    0.000000   -0.057446    0.000000    0.000000   -0.082742    0.000000    0.000000   -0.140188    0.000651
   2     0.000000    0.000000   -0.057513    0.000000    0.000000   -0.082764    0.000000    0.000000   -0.140276    0.000026
-----------------------------------------------------------------------------------------------------------------------------
 
  FINAL CASPT2 RESULT:
 
      Reference energy:        -398.5081996450
      E2 (Non-variational):      -0.1402775775
      E2 (Variational):          -0.1402775041
      Total energy:            -398.6484771491
      Residual norm:              0.0000009372
      Reference weight:           0.93654
 
      Contributions to the CASPT2 correlation energy
      Active & Virtual Only:         -0.1402775775
      One Inactive Excited:           0.0000000000
      Two Inactive Excited:           0.0000000000
 
 
++ Denominators, etc.
--------------------------------------------------------------------------------------------------------------
 Report on small energy denominators, large coefficients, and large energy contributions.
CASE  SYMM ACTIVE-MIX  NON-ACTIVE INDICES          DENOMINATOR     RHS VALUE       COEFFICIENT     CONTRIBUTION
ATVX     1  Mu1.0032  Se1.013                       1.47737155      0.07607085     -0.05136930     -0.00390771
ATVX     1  Mu1.0037  Se1.016                       1.69130969      0.05075411     -0.03000947     -0.00152310
ATVX     1  Mu1.0001  Se1.017                       0.64705368      0.01761636     -0.02599680     -0.00045797
ATVX     1  Mu1.0053  Se1.018                       1.81632955     -0.07015104      0.03856150     -0.00270513
ATVX     1  Mu1.0054  Se1.019                       1.83865999      0.07625570     -0.04141216     -0.00315791
ATVX     1  Mu1.0007  Se1.020                       1.21639677     -0.04479888      0.03666156     -0.00164240
ATVX     1  Mu1.0032  Se1.020                       1.69625573      0.05458581     -0.03202992     -0.00174838
ATVX     1  Mu1.0001  Se1.021                       0.96303869      0.02583804     -0.02714948     -0.00070149
ATVX     1  Mu1.0009  Se1.021                       1.49865173     -0.06836668      0.04514180     -0.00308619
ATVX     1  Mu1.0011  Se1.021                       1.50676084      0.04493900     -0.02900783     -0.00130358
ATVX     1  Mu1.0007  Se1.022                       1.52932851     -0.06372273      0.04146628     -0.00264234
BVATP    1  Mu1.0008  Se1.013 Se1.012               2.00657944     -0.05327589      0.02624682     -0.00139832
BVATP    1  Mu1.0009  Se1.016 Se1.016               2.39359123      0.06861660     -0.02863650     -0.00196494
BVATM    1  Mu1.0006  Se1.016 Se1.012               2.15733731      0.05907799     -0.02723873     -0.00160921
BVATM    1  Mu1.0003  Se1.018 Se1.013               2.12694094     -0.06321345      0.02939503     -0.00185816
--
 
   (Skipping property calculation,
    use PROP keyword to activate)
********************************************************************************
 Compute H0 matrices for state    3
--------------------------------------------------------------------------------
--------------------------------------------------------------------------------
 H0 matrices have been computed.
 
********************************************************************************
  CASPT2 EQUATION SOLUTION
--------------------------------------------------------------------------------
 
  Total nr of CASPT2 parameters:
   Before reduction:        8925
   After  reduction:        7820
 
 Variance of |WF0>:       0.3174054068
 
 The contributions to the second order correlation energy in atomic units.
-----------------------------------------------------------------------------------------------------------------------------
  IT.      VJTU        VJTI        ATVX        AIVX        VJAI        BVAT        BJAT        BJAI        TOTAL       RNORM  
-----------------------------------------------------------------------------------------------------------------------------
   1     0.000000    0.000000   -0.059591    0.000000    0.000000   -0.082718    0.000000    0.000000   -0.142310    0.000705
   2     0.000000    0.000000   -0.059660    0.000000    0.000000   -0.082747    0.000000    0.000000   -0.142407    0.000025
-----------------------------------------------------------------------------------------------------------------------------
 
  FINAL CASPT2 RESULT:
 
      Reference energy:        -398.4785752874
      E2 (Non-variational):      -0.1424083006
      E2 (Variational):          -0.1424082227
      Total energy:            -398.6209835101
      Residual norm:              0.0000009764
      Reference weight:           0.92969
 
      Contributions to the CASPT2 correlation energy
      Active & Virtual Only:         -0.1424083006
      One Inactive Excited:           0.0000000000
      Two Inactive Excited:           0.0000000000
 
 
++ Denominators, etc.
--------------------------------------------------------------------------------------------------------------
 Report on small energy denominators, large coefficients, and large energy contributions.
CASE  SYMM ACTIVE-MIX  NON-ACTIVE INDICES          DENOMINATOR     RHS VALUE       COEFFICIENT     CONTRIBUTION
ATVX     1  Mu1.0007  Se1.012                       0.89723690      0.02565744     -0.02847886     -0.00073069
ATVX     1  Mu1.0001  Se1.013                       0.43572986      0.03113009     -0.07010227     -0.00218229
ATVX     1  Mu1.0008  Se1.013                       0.97134291     -0.03082148      0.03106400     -0.00095744
ATVX     1  Mu1.0010  Se1.013                       0.97945201     -0.03221357      0.03251426     -0.00104740
ATVX     1  Mu1.0034  Se1.013                       1.45931097      0.05959433     -0.04070598     -0.00242585
ATVX     1  Mu1.0044  Se1.013                       1.51506506     -0.04722642      0.03098670     -0.00146339
ATVX     1  Mu1.0001  Se1.014                       0.52251928     -0.01709145      0.03180151     -0.00054353
ATVX     1  Mu1.0043  Se1.016                       1.67324911     -0.07369906      0.04400047     -0.00324279
ATVX     1  Mu1.0002  Se1.018                       0.76376724      0.02591361     -0.03361013     -0.00087096
ATVX     1  Mu1.0005  Se1.018                       1.04888618      0.03440713     -0.03208467     -0.00110394
ATVX     1  Mu1.0053  Se1.018                       1.81311035      0.07084917     -0.03902257     -0.00276472
ATVX     1  Mu1.0003  Se1.019                       0.78494079     -0.02704754      0.03415104     -0.00092370
ATVX     1  Mu1.0026  Se1.019                       1.58514486     -0.04550019      0.02868659     -0.00130525
ATVX     1  Mu1.0052  Se1.019                       1.82296092      0.07486007     -0.04100553     -0.00306968
ATVX     1  Mu1.0034  Se1.020                       1.67819515      0.07066705     -0.04199832     -0.00296790
ATVX     1  Mu1.0010  Se1.022                       1.51126793     -0.05109188      0.03318630     -0.00169555
BVATP    1  Mu1.0008  Se1.016 Se1.016               2.36643354     -0.07693609      0.03250823     -0.00250106
BVATM    1  Mu1.0006  Se1.016 Se1.012               2.13904350     -0.06031376      0.02788578     -0.00168190
BVATM    1  Mu1.0003  Se1.018 Se1.013               2.12254728      0.06330672     -0.02937231     -0.00185946
--
 
   (Skipping property calculation,
    use PROP keyword to activate)
********************************************************************************
 Compute H0 matrices for state    4
--------------------------------------------------------------------------------
--------------------------------------------------------------------------------
 H0 matrices have been computed.
 
********************************************************************************
  CASPT2 EQUATION SOLUTION
--------------------------------------------------------------------------------
 
  Total nr of CASPT2 parameters:
   Before reduction:        8925
   After  reduction:        8466
 
 Variance of |WF0>:       0.3157314355
 
 The contributions to the second order correlation energy in atomic units.
-----------------------------------------------------------------------------------------------------------------------------
  IT.      VJTU        VJTI        ATVX        AIVX        VJAI        BVAT        BJAT        BJAI        TOTAL       RNORM  
-----------------------------------------------------------------------------------------------------------------------------
   1     0.000000    0.000000   -0.054923    0.000000    0.000000   -0.089880    0.000000    0.000000   -0.144803    0.000694
   2     0.000000    0.000000   -0.054994    0.000000    0.000000   -0.089911    0.000000    0.000000   -0.144905    0.000026
   3     0.000000    0.000000   -0.054994    0.000000    0.000000   -0.089912    0.000000    0.000000   -0.144906    0.000001
-----------------------------------------------------------------------------------------------------------------------------
 
  FINAL CASPT2 RESULT:
 
      Reference energy:        -398.3519237615
      E2 (Non-variational):      -0.1449060414
      E2 (Variational):          -0.1449060402
      Total energy:            -398.4968298016
      Residual norm:              0.0000000456
      Reference weight:           0.92929
 
      Contributions to the CASPT2 correlation energy
      Active & Virtual Only:         -0.1449060414
      One Inactive Excited:           0.0000000000
      Two Inactive Excited:           0.0000000000
 
 
++ Denominators, etc.
--------------------------------------------------------------------------------------------------------------
 Report on small energy denominators, large coefficients, and large energy contributions.
CASE  SYMM ACTIVE-MIX  NON-ACTIVE INDICES          DENOMINATOR     RHS VALUE       COEFFICIENT     CONTRIBUTION
ATVX     1  Mu1.0001  Se1.012                       0.25077370     -0.00000000      0.00000000     -0.00000000
ATVX     1  Mu1.0017  Se1.013                       0.97231925     -0.03230449      0.03300286     -0.00106614
ATVX     1  Mu1.0022  Se1.013                       1.00425279     -0.04185465      0.04063206     -0.00170064
ATVX     1  Mu1.0056  Se1.013                       1.46028731     -0.04166177      0.02870084     -0.00119573
ATVX     1  Mu1.0002  Se1.014                       0.52349563      0.01423556     -0.02645310     -0.00037657
ATVX     1  Mu1.0038  Se1.015                       1.49457112      0.03831159     -0.02523141     -0.00096666
ATVX     1  Mu1.0017  Se1.016                       1.13050330     -0.03256243      0.02833884     -0.00092278
ATVX     1  Mu1.0003  Se1.017                       0.62186033      0.02043369     -0.03192166     -0.00065228
ATVX     1  Mu1.0011  Se1.018                       1.05346533     -0.04145762      0.03941138     -0.00163390
ATVX     1  Mu1.0033  Se1.018                       1.53186573     -0.05448520      0.03549233     -0.00193381
ATVX     1  Mu1.0031  Se1.019                       1.52336324      0.04577747     -0.03004964     -0.00137560
ATVX     1  Mu1.0039  Se1.019                       1.59274089      0.03991789     -0.02519054     -0.00100555
ATVX     1  Mu1.0015  Se1.021                       1.44963396      0.04791457     -0.03300990     -0.00158166
ATVX     1  Mu1.0019  Se1.021                       1.47345839      0.05676848     -0.03830272     -0.00217439
ATVX     1  Mu1.0021  Se1.021                       1.48156750      0.04775078     -0.03148923     -0.00150364
BVATP    1  Mu1.0007  Se1.015 Se1.015               2.04098014     -0.07367221      0.03611132     -0.00266040
BVATP    1  Mu1.0007  Se1.018 Se1.018               2.20972964     -0.07533486      0.03409165     -0.00256829
BVATP    1  Mu1.0007  Se1.019 Se1.019               2.23484534     -0.07565092      0.03385063     -0.00256083
BVATM    1  Mu1.0004  Se1.018 Se1.013               2.12778755     -0.07207716      0.03365574     -0.00242581
BVATM    1  Mu1.0005  Se1.019 Se1.013               2.15677716      0.05847308     -0.02691666     -0.00157390
BVATM    1  Mu1.0005  Se1.019 Se1.016               2.31496121      0.06688622     -0.02884955     -0.00192964
--
 
   (Skipping property calculation,
    use PROP keyword to activate)
********************************************************************************
 Compute H0 matrices for state    5
--------------------------------------------------------------------------------
--------------------------------------------------------------------------------
 H0 matrices have been computed.
 
********************************************************************************
  CASPT2 EQUATION SOLUTION
--------------------------------------------------------------------------------
 
  Total nr of CASPT2 parameters:
   Before reduction:        8925
   After  reduction:        8466
 
 Variance of |WF0>:       0.3197457145
 
 The contributions to the second order correlation energy in atomic units.
-----------------------------------------------------------------------------------------------------------------------------
  IT.      VJTU        VJTI        ATVX        AIVX        VJAI        BVAT        BJAT        BJAI        TOTAL       RNORM  
-----------------------------------------------------------------------------------------------------------------------------
   1     0.000000    0.000000   -0.062395    0.000000    0.000000   -0.086239    0.000000    0.000000   -0.148634    0.000746
   2     0.000000    0.000000   -0.062482    0.000000    0.000000   -0.086273    0.000000    0.000000   -0.148754    0.000030
   3     0.000000    0.000000   -0.062482    0.000000    0.000000   -0.086274    0.000000    0.000000   -0.148756    0.000001
-----------------------------------------------------------------------------------------------------------------------------
 
  FINAL CASPT2 RESULT:
 
      Reference energy:        -398.3458777734
      E2 (Non-variational):      -0.1487556755
      E2 (Variational):          -0.1487556743
      Total energy:            -398.4946334477
      Residual norm:              0.0000000492
      Reference weight:           0.92518
 
      Contributions to the CASPT2 correlation energy
      Active & Virtual Only:         -0.1487556755
      One Inactive Excited:           0.0000000000
      Two Inactive Excited:           0.0000000000
 
 
++ Denominators, etc.
--------------------------------------------------------------------------------------------------------------
 Report on small energy denominators, large coefficients, and large energy contributions.
CASE  SYMM ACTIVE-MIX  NON-ACTIVE INDICES          DENOMINATOR     RHS VALUE       COEFFICIENT     CONTRIBUTION
ATVX     1  Mu1.0001  Se1.012                       0.24966309      0.00000000      0.00000000      0.00000000
ATVX     1  Mu1.0017  Se1.012                       0.90904950      0.03480058     -0.03698145     -0.00128698
ATVX     1  Mu1.0022  Se1.012                       0.94098304      0.02510785     -0.02922432     -0.00073376
ATVX     1  Mu1.0055  Se1.012                       1.39701756      0.03731542     -0.02663393     -0.00099386
ATVX     1  Mu1.0003  Se1.013                       0.44754246     -0.02202944      0.04823124     -0.00106251
ATVX     1  Mu1.0019  Se1.013                       0.98315551      0.02548103     -0.02518946     -0.00064185
ATVX     1  Mu1.0021  Se1.013                       0.99126462     -0.06014946      0.06068864     -0.00365039
ATVX     1  Mu1.0003  Se1.016                       0.60572651      0.01999204     -0.03292922     -0.00065832
ATVX     1  Mu1.0019  Se1.016                       1.14133956      0.03399006     -0.02924164     -0.00099393
ATVX     1  Mu1.0051  Se1.016                       1.59737408      0.04085396     -0.02545855     -0.00104008
ATVX     1  Mu1.0058  Se1.016                       1.62930762     -0.09054097      0.05534030     -0.00501056
ATVX     1  Mu1.0001  Se1.019                       0.51801006     -0.01481199      0.02846117     -0.00042157
ATVX     1  Mu1.0034  Se1.019                       1.54724425     -0.06779765      0.04377009     -0.00296751
ATVX     1  Mu1.0043  Se1.019                       1.59744062     -0.04346869      0.02716863     -0.00118098
ATVX     1  Mu1.0003  Se1.020                       0.66642664      0.02691459     -0.03954904     -0.00106445
ATVX     1  Mu1.0019  Se1.022                       1.51497143     -0.05543932      0.03619895     -0.00200685
BVATP    1  Mu1.0006  Se1.015 Se1.015               2.03933354     -0.07415533      0.03637388     -0.00269732
BVATP    1  Mu1.0006  Se1.018 Se1.018               2.20808304     -0.07748598      0.03509456     -0.00271934
BVATP    1  Mu1.0006  Se1.019 Se1.019               2.23319873     -0.07641729      0.03421876     -0.00261490
BVATM    1  Mu1.0004  Se1.015 Se1.014               2.12327915      0.05994201     -0.02786787     -0.00167046
BVATM    1  Mu1.0004  Se1.018 Se1.013               2.12086447     -0.08109445      0.03801424     -0.00308274
--
 
   (Skipping property calculation,
    use PROP keyword to activate)
********************************************************************************
 Compute H0 matrices for state    6
--------------------------------------------------------------------------------
--------------------------------------------------------------------------------
 H0 matrices have been computed.
 
********************************************************************************
  CASPT2 EQUATION SOLUTION
--------------------------------------------------------------------------------
 
  Total nr of CASPT2 parameters:
   Before reduction:        8925
   After  reduction:        8466
 
 Variance of |WF0>:       0.3547062788
 
 The contributions to the second order correlation energy in atomic units.
-----------------------------------------------------------------------------------------------------------------------------
  IT.      VJTU        VJTI        ATVX        AIVX        VJAI        BVAT        BJAT        BJAI        TOTAL       RNORM  
-----------------------------------------------------------------------------------------------------------------------------
   1     0.000000    0.000000   -0.082367    0.000000    0.000000   -0.092933    0.000000    0.000000   -0.175300    0.000656
   2     0.000000    0.000000   -0.082447    0.000000    0.000000   -0.092969    0.000000    0.000000   -0.175415    0.000019
-----------------------------------------------------------------------------------------------------------------------------
 
  FINAL CASPT2 RESULT:
 
      Reference energy:        -398.2824194059
      E2 (Non-variational):      -0.1754161884
      E2 (Variational):          -0.1754161103
      Total energy:            -398.4578355162
      Residual norm:              0.0000007628
      Reference weight:           0.89389
 
      Contributions to the CASPT2 correlation energy
      Active & Virtual Only:         -0.1754161884
      One Inactive Excited:           0.0000000000
      Two Inactive Excited:           0.0000000000
 
 
++ Denominators, etc.
--------------------------------------------------------------------------------------------------------------
 Report on small energy denominators, large coefficients, and large energy contributions.
CASE  SYMM ACTIVE-MIX  NON-ACTIVE INDICES          DENOMINATOR     RHS VALUE       COEFFICIENT     CONTRIBUTION
ATVX     1  Mu1.0001  Se1.012                       0.29174267      0.00000000     -0.00000000     -0.00000000
ATVX     1  Mu1.0002  Se1.012                       0.41504690      0.04333552     -0.10397505     -0.00450581
ATVX     1  Mu1.0014  Se1.012                       0.89490585     -0.03242555      0.03616626     -0.00117271
ATVX     1  Mu1.0003  Se1.013                       0.48915291     -0.04601224      0.09355498     -0.00430467
ATVX     1  Mu1.0035  Se1.015                       1.52161399      0.03897818     -0.02506518     -0.00097700
ATVX     1  Mu1.0003  Se1.016                       0.64733695     -0.06556974      0.10134687     -0.00664529
ATVX     1  Mu1.0049  Se1.016                       1.63898452      0.07506826     -0.04570486     -0.00343098
ATVX     1  Mu1.0059  Se1.016                       1.69473862     -0.06724005      0.03968998     -0.00266876
ATVX     1  Mu1.0002  Se1.017                       0.65048260      0.03704444     -0.05563992     -0.00206115
ATVX     1  Mu1.0031  Se1.018                       1.55023465     -0.06567679      0.04232880     -0.00278002
ATVX     1  Mu1.0001  Se1.019                       0.56008963      0.05959652     -0.10651766     -0.00634808
ATVX     1  Mu1.0034  Se1.019                       1.60918977      0.06316254     -0.03931383     -0.00248316
ATVX     1  Mu1.0016  Se1.021                       1.50208066      0.04147837     -0.02727712     -0.00113141
BVATP    1  Mu1.0006  Se1.015 Se1.015               2.04223174     -0.07386965      0.03615269     -0.00267059
BVATP    1  Mu1.0006  Se1.018 Se1.018               2.21098125     -0.07572324      0.03424958     -0.00259349
BVATP    1  Mu1.0006  Se1.019 Se1.019               2.23609694     -0.07710436      0.03448167     -0.00265869
BVATM    1  Mu1.0004  Se1.018 Se1.013               2.14236070     -0.06951921      0.03213627     -0.00223409
BVATM    1  Mu1.0005  Se1.019 Se1.013               2.15606359     -0.06233647      0.02836623     -0.00176825
BVATM    1  Mu1.0005  Se1.019 Se1.016               2.31424764     -0.07083887      0.03051116     -0.00216138
BVATM    1  Mu1.0005  Se1.020 Se1.019               2.37494777      0.05930550     -0.02556688     -0.00151626
--
 
   (Skipping property calculation,
    use PROP keyword to activate)
--
 
  Total CASPT2 energies:
 
  State-specific CASPT2 energies obtained using
  rotated states do not have a well-defined physical
  meaning, however they can be extracted from the
  diagonal of the effective Hamiltonian.
 
++ Multi-State CASPT2 section:
********************************************************************************
  MULTI-STATE CASPT2 SECTION
--------------------------------------------------------------------------------
 
  Output diagonal energies have been shifted. Add   -398.000000000000     
 
  Effective Hamiltonian matrix (Symmetric):
 
                1               2               3               4               5
   1        -0.82490299
   2        -0.00000000     -0.64847715
   3         0.00000000     -0.00000000     -0.62098351
   4         0.00759121     -0.00000000     -0.00000000     -0.49704769
   5         0.00000000     -0.00000000     -0.00000000     -0.00000000     -0.48671141
   6        -0.00000000     -0.00000000     -0.00000000      0.00000000     -0.02122562
 
                6
   6        -0.46575756
 
       Total XMS-CASPT2 energies:
::    XMS-CASPT2 Root  1     Total energy:   -398.82507867
::    XMS-CASPT2 Root  2     Total energy:   -398.64847715
::    XMS-CASPT2 Root  3     Total energy:   -398.62098351
::    XMS-CASPT2 Root  4     Total energy:   -398.49990499
::    XMS-CASPT2 Root  5     Total energy:   -398.49687202
::    XMS-CASPT2 Root  6     Total energy:   -398.45256397
 
       Eigenvectors:
            0.99973234     -0.00000000      0.00000000      0.00000000      0.02313556
            0.00000000      1.00000000     -0.00000001     -0.00000000     -0.00000000
           -0.00000000      0.00000001      1.00000000     -0.00000000     -0.00000000
           -0.02313556      0.00000000      0.00000000      0.00000000      0.99973234
           -0.00000000      0.00000000      0.00000000      0.84929828      0.00000004
            0.00000000      0.00000000      0.00000000      0.52791329     -0.00000007
 
           -0.00000000
           -0.00000000
           -0.00000000
            0.00000008
           -0.52791329
            0.84929828
 
       In terms of the input states:
            0.99999759     -0.00000000      0.00000000      0.00000000     -0.00219453
            0.00000000      1.00000000     -0.00000000      0.00000000      0.00000000
           -0.00000000      0.00000000      1.00000000     -0.00000000     -0.00000000
            0.00219453     -0.00000000      0.00000000      0.00000009      0.99999759
           -0.00000000     -0.00000000      0.00000000      0.98104399     -0.00000008
           -0.00000000     -0.00000000      0.00000000      0.19378516     -0.00000003
 
            0.00000000
            0.00000000
            0.00000000
            0.00000001
           -0.19378516
            0.98104399
 
--
 
  THE ORIGINAL CI ARRAYS ARE NOW MIXED AS LINEAR
  COMBINATIONS, GIVEN BY THE EIGENVECTORS.
  A NEW JOBIPH FILE NAMED 'JOBMIX' IS PREPARED.
********************************************************************************
 
++ Mixed CI coefficients:
  The CI coefficients for the MIXED state nr.   1
--------------------------------------------------------------------------------
 CI COEFFICIENTS LARGER THAN  0.10D+00
  Occupation of active orbitals, and spin coupling
  of open shells. (u,d: Spin up or down).
  SGUGA info is (Midvert:IsyUp:UpperWalk/LowerWalk)
        Conf  SGUGA info        Occupation    Coefficient         Weight
           1  ( 1:1:   1/   1)   222200         -0.971737       0.944273
          15  ( 2:1:   1/   2)   2u22d0          0.110555       0.012222
[...]
    12  1.0  0.0    1  0.0  0.0         0.000      -181.892       181.892
    12  1.0  0.0    2  0.0  0.0         0.000        -0.000         0.000
    12  1.0  0.0    3  0.0  0.0         0.000         0.000         0.000
    12  1.0  0.0    4  0.0  0.0         0.000        -0.000         0.000
    12  1.0  0.0    5  0.0  0.0         0.000       -70.341        70.341
    12  1.0  0.0    6  0.0  0.0         0.000        -0.000         0.000
    12  1.0  0.0    7  0.5 -0.5         0.000         0.000         0.000
    12  1.0  0.0    8  0.5  0.5         0.000         0.000         0.000
    12  1.0  0.0    9  0.5 -0.5         0.000         0.000         0.000
    12  1.0  0.0   10  0.5  0.5         0.000         0.000         0.000
    12  1.0  0.0   11  1.0 -1.0         0.000        -0.000         0.000
    12  1.0  0.0   12  1.0  0.0         0.000         0.000         0.000
    13  1.0  1.0    1  0.0  0.0        -0.000        -0.000         0.000
    13  1.0  1.0    2  0.0  0.0         0.000         0.000         0.000
    13  1.0  1.0    3  0.0  0.0         0.000        61.353        61.353
    13  1.0  1.0    4  0.0  0.0        80.446         0.000        80.446
    13  1.0  1.0    5  0.0  0.0        -0.000        -0.000         0.000
    13  1.0  1.0    6  0.0  0.0        40.378         0.000        40.378
    13  1.0  1.0    7  0.5 -0.5         0.000         0.000         0.000
    13  1.0  1.0    8  0.5  0.5         0.000         0.000         0.000
    13  1.0  1.0    9  0.5 -0.5         0.000         0.000         0.000
    13  1.0  1.0   10  0.5  0.5         0.000         0.000         0.000
    13  1.0  1.0   11  1.0 -1.0         0.000         0.000         0.000
    13  1.0  1.0   12  1.0  0.0         0.000        -0.000         0.000
    13  1.0  1.0   13  1.0  1.0         0.000         0.000         0.000
    14  1.0 -1.0    1  0.0  0.0       117.057        -0.000       117.057
    14  1.0 -1.0    2  0.0  0.0         0.000       -63.622        63.622
    14  1.0 -1.0    3  0.0  0.0        -0.000        -0.000         0.000
    14  1.0 -1.0    4  0.0  0.0        -0.000        -0.000         0.000
    14  1.0 -1.0    5  0.0  0.0       -73.031         0.000        73.031
    14  1.0 -1.0    6  0.0  0.0         0.000         0.000         0.000
    14  1.0 -1.0    7  0.5 -0.5         0.000         0.000         0.000
    14  1.0 -1.0    8  0.5  0.5         0.000         0.000         0.000
    14  1.0 -1.0    9  0.5 -0.5         0.000         0.000         0.000
    14  1.0 -1.0   10  0.5  0.5         0.000         0.000         0.000
    14  1.0 -1.0   11  1.0 -1.0         0.000        -0.000         0.000
    14  1.0 -1.0   12  1.0  0.0         0.000       -58.645        58.645
    14  1.0 -1.0   13  1.0  1.0         0.000         0.000         0.000
    14  1.0 -1.0   14  1.0 -1.0         0.000        -0.000         0.000
    15  1.0  0.0    1  0.0  0.0         0.000        -0.000         0.000
    15  1.0  0.0    2  0.0  0.0         0.000         0.000         0.000
    15  1.0  0.0    3  0.0  0.0         0.000         0.000         0.000
    15  1.0  0.0    4  0.0  0.0         0.000        80.218        80.218
    15  1.0  0.0    5  0.0  0.0         0.000        -0.000         0.000
    15  1.0  0.0    6  0.0  0.0         0.000       -91.379        91.379
    15  1.0  0.0    7  0.5 -0.5         0.000         0.000         0.000
    15  1.0  0.0    8  0.5  0.5         0.000         0.000         0.000
    15  1.0  0.0    9  0.5 -0.5         0.000         0.000         0.000
    15  1.0  0.0   10  0.5  0.5         0.000         0.000         0.000
    15  1.0  0.0   11  1.0 -1.0        -0.000       -58.645        58.645
    15  1.0  0.0   12  1.0  0.0         0.000         0.000         0.000
    15  1.0  0.0   13  1.0  1.0         0.000       -58.645        58.645
    15  1.0  0.0   14  1.0 -1.0        -0.000        -0.000         0.000
    15  1.0  0.0   15  1.0  0.0         0.000         0.000         0.000
    16  1.0  1.0    1  0.0  0.0       117.057         0.000       117.057
    16  1.0  1.0    2  0.0  0.0         0.000        63.622        63.622
    16  1.0  1.0    3  0.0  0.0        -0.000         0.000         0.000
    16  1.0  1.0    4  0.0  0.0        -0.000         0.000         0.000
    16  1.0  1.0    5  0.0  0.0       -73.031        -0.000        73.031
    16  1.0  1.0    6  0.0  0.0         0.000        -0.000         0.000
    16  1.0  1.0    7  0.5 -0.5         0.000         0.000         0.000
    16  1.0  1.0    8  0.5  0.5         0.000         0.000         0.000
    16  1.0  1.0    9  0.5 -0.5         0.000         0.000         0.000
    16  1.0  1.0   10  0.5  0.5         0.000         0.000         0.000
    16  1.0  1.0   11  1.0 -1.0         0.000         0.000         0.000
    16  1.0  1.0   12  1.0  0.0        -0.000       -58.645        58.645
    16  1.0  1.0   13  1.0  1.0         0.000         0.000         0.000
    16  1.0  1.0   14  1.0 -1.0         0.000         0.000         0.000
    16  1.0  1.0   15  1.0  0.0        -0.000        -0.000         0.000
    16  1.0  1.0   16  1.0  1.0         0.000         0.000         0.000
 ----------------------------------------------------------------------
 
       Total energies including SO-coupling:
::    SO-RASSI State    1     Total energy:    -398.82508596412424
::    SO-RASSI State    2     Total energy:    -398.66121904682308
::    SO-RASSI State    3     Total energy:    -398.66121387579483
::    SO-RASSI State    4     Total energy:    -398.66121329112229
::    SO-RASSI State    5     Total energy:    -398.64849937427749
::    SO-RASSI State    6     Total energy:    -398.64093233781369
::    SO-RASSI State    7     Total energy:    -398.64092911055451
::    SO-RASSI State    8     Total energy:    -398.64091531507728
::    SO-RASSI State    9     Total energy:    -398.62097962520090
::    SO-RASSI State   10     Total energy:    -398.49990238585275
::    SO-RASSI State   11     Total energy:    -398.49686985080609
::    SO-RASSI State   12     Total energy:    -398.46655867368190
::    SO-RASSI State   13     Total energy:    -398.46655867368190
::    SO-RASSI State   14     Total energy:    -398.45256272456282
::    SO-RASSI State   15     Total energy:    -398.33934793835766
::    SO-RASSI State   16     Total energy:    -398.33934793835766
 
 
   Eigenvalues of complex Hamiltonian:
   -----------------------------------
  (Shifted by EMIN (a.u.) =       -398.8250786677)
 
 SO State       Relative EMIN(au)   Rel lowest level(eV)    D:o, cm**(-1)
 
     1            -0.0000072965        0.0000000000              0.0000
     2             0.1638596208        4.4590459796          35964.6313
     3             0.1638647919        4.4591866905          35965.7662
     4             0.1638653765        4.4592026002          35965.8945
     5             0.1765792934        4.8051659022          38756.2767
     6             0.1841463298        5.0110754541          40417.0492
     7             0.1841495571        5.0111632723          40417.7576
     8             0.1841633526        5.0115386664          40420.7853
     9             0.2040990425        5.5540164237          44796.1635
    10             0.3251762818        8.8486959492          71369.5460
    11             0.3282088169        8.9312154317          72035.1105
    12             0.3585199940        9.7560245800          78687.6449
    13             0.3585199940        9.7560245800          78687.6449
    14             0.3725159431       10.1368737573          81759.4007
    15             0.4857307293       13.2176050335         106607.1741
    16             0.4857307293       13.2176050335         106607.1741
 
 
 Weights of the five most important spin-orbit-free states for each spin-orbit s
 tate.
 
 SO State  Total energy (au)           Spin-free states, spin, and weights
 -------------------------------------------------------------------------------
 ------------------------
    1        -0.000007       1 0.0  1.0000    9 1.0  0.0000   10 1.0  0.0000    5 0.0  0.0000    4 0.0  0.0000
    2         0.163860       9 1.0  0.9996   10 1.0  0.0003    4 0.0  0.0000    6 0.0  0.0000    5 0.0  0.0000
    3         0.163865       9 1.0  0.9999    3 0.0  0.0001    2 0.0  0.0000   10 1.0  0.0000    4 0.0  0.0000
    4         0.163865       9 1.0  0.9996   10 1.0  0.0003    1 0.0  0.0000    5 0.0  0.0000    4 0.0  0.0000
    5         0.176579       2 0.0  0.9971   10 1.0  0.0029    9 1.0  0.0000    5 0.0  0.0000    3 0.0  0.0000
    6         0.184146      10 1.0  0.9996    9 1.0  0.0003    4 0.0  0.0000    6 0.0  0.0000    5 0.0  0.0000
    7         0.184150      10 1.0  0.9996    9 1.0  0.0003    1 0.0  0.0000    5 0.0  0.0000    4 0.0  0.0000
    8         0.184163      10 1.0  0.9971    2 0.0  0.0029    9 1.0  0.0000    1 0.0  0.0000    5 0.0  0.0000
    9         0.204099       3 0.0  0.9999    9 1.0  0.0001   10 1.0  0.0000    4 0.0  0.0000    6 0.0  0.0000
   10         0.325176       4 0.0  1.0000    9 1.0  0.0000   10 1.0  0.0000    6 0.0  0.0000    5 0.0  0.0000
   11         0.328209       5 0.0  1.0000   10 1.0  0.0000    9 1.0  0.0000    1 0.0  0.0000    2 0.0  0.0000
   12         0.358520       7 0.5  1.0000    8 0.5  0.0000   10 1.0  0.0000    9 1.0  0.0000    6 0.0  0.0000
   13         0.358520       7 0.5  1.0000    8 0.5  0.0000   10 1.0  0.0000    9 1.0  0.0000    6 0.0  0.0000
   14         0.372516       6 0.0  1.0000   10 1.0  0.0000    9 1.0  0.0000    4 0.0  0.0000    1 0.0  0.0000
   15         0.485731       8 0.5  1.0000    7 0.5  0.0000   10 1.0  0.0000    9 1.0  0.0000    6 0.0  0.0000
   16         0.485731       8 0.5  1.0000    7 0.5  0.0000   10 1.0  0.0000    9 1.0  0.0000    6 0.0  0.0000
 -------------------------------------------------------------------------------
 ------------------------
 
 
      ****************************************************************************************************
      *                                                                                                  *
      *                                    Special properties section                                    *
      *                                                                                                  *
      ****************************************************************************************************
 
 
++ Dipole transition strengths (SO states):
   ----------------------------------------
        for osc. strength at least   1.00000000E-05
 
      From   To        Osc. strength     Einstein coefficients Ax, Ay, Az (sec-1)    Total A (sec-1)
     -----------------------------------------------------------------------------------------------
         1    9       1.10595971E-04  1.48034580E+05  7.53436032E-15  8.65590084E-18  1.48034580E+05
         1   10       5.95250838E-02  9.08488598E-16  2.02240491E+08  6.26219837E-07  2.02240491E+08
         1   11       1.99170568E-02  3.89012221E-15  3.36783089E-06  6.89375497E+07  6.89375497E+07
         1   14       8.10402873E-01  9.58490478E-14  3.61342128E+09  2.34947739E-07  3.61342128E+09
         2    7       5.37984818E-03  7.87260621E-23  7.11610372E+04  1.25826194E-13  7.11610372E+04
         3    8       5.37190925E-03  5.51212412E-22  7.11164454E+04  1.26497885E-13  7.11164454E+04
         4    6       5.37741753E-03  3.94404450E-23  7.10659185E+04  1.25785941E-13  7.10659185E+04
         4   14       1.50708851E-05  1.13845937E-18  2.10808821E+04  1.19113982E-12  2.10808821E+04
         5    9       7.31786180E-03  1.20209702E-17  1.78067240E+05  3.12309376E-12  1.78067240E+05
         5   10       4.85633832E-03  3.44540146E+06  1.59557728E-15  4.66957173E-17  3.44540146E+06
         5   14       4.80551242E-03  5.92764169E+06  1.92415339E-17  1.35497345E-16  5.92764169E+06
         8    9       1.04442719E-05  1.25119059E-20  1.33367986E+02  3.09877172E-15  1.33367986E+02
         8   10       1.35448970E-05  8.65375229E+03  3.64731330E-18  1.17285405E-19  8.65375229E+03
         8   14       1.35773018E-05  1.54763146E+04  1.02576281E-18  3.53766278E-19  1.54763146E+04
         9   11       5.63766357E-03  2.79011441E+06  2.62926705E-16  6.03021771E-17  2.79011441E+06
        10   11       1.43076957E-03  3.48172467E-20  4.22758392E+02  1.26952302E-13  4.22758392E+02
        10   14       1.60770715E-04  4.06554961E-19  3.20940696E-10  1.15762559E+04  1.15762559E+04
        11   14       6.83299800E-04  2.09030178E-18  4.30992133E+04  1.23043855E-10  4.30992133E+04
        12   15       8.44420312E-03  4.39053134E+06  1.51775611E-12  1.03922128E-18  4.39053134E+06
        13   16       8.44420312E-03  4.39053134E+06  1.51775611E-12  1.03928737E-18  4.39053134E+06
     -----------------------------------------------------------------------------------------------
--
 
++ Velocity transition strengths (SO states):
   ------------------------------------------
        for osc. strength at least   1.00000000E-05
 
      From   To        Osc. strength     Einstein coefficients Ax, Ay, Az (sec-1)    Total A (sec-1)
     -----------------------------------------------------------------------------------------------
         1    9       4.27149995E-03  5.71747501E+06  2.15199458E-13  1.81783320E-14  5.71747501E+06
         1   10       5.78420602E-02  6.65440077E-15  1.96522305E+08  7.94354750E-07  1.96522305E+08
         1   11       2.55811502E-02  4.66416138E-15  3.43116973E-06  8.85422895E+07  8.85422895E+07
         1   14       7.92720549E-01  2.17281779E-13  3.53457940E+09  2.81935112E-07  3.53457940E+09
         2    4       2.20625124E-02  3.24180971E-25  2.34834702E-02  2.37333856E-19  2.34834702E-02
         2    7       4.41510180E-03  5.94621786E-19  5.84000167E+04  6.61357979E-13  5.84000167E+04
         3    5       1.72900651E-05  7.01399412E-18  8.98061729E+01  2.01467432E-15  8.98061729E+01
         3    8       4.40399183E-03  5.62429444E-19  5.83025942E+04  6.61051582E-13  5.83025942E+04
         4    6       4.40860361E-03  5.94961150E-19  5.82624396E+04  6.64853752E-13  5.82624396E+04
         4   14       3.69174199E-05  6.45436518E-18  5.16394207E+04  4.40839237E-12  5.16394207E+04
         5    9       7.16635020E-04  7.53340709E-15  1.74380473E+04  2.22665934E-12  1.74380473E+04
         5   10       4.17693914E-03  2.96339161E+06  4.29023240E-15  4.54866116E-16  2.96339161E+06
         5   14       5.44087849E-03  6.71137130E+06  2.29363711E-15  2.93064509E-16  6.71137130E+06
         6    7       3.89465218E-02  1.26797470E-25  1.30330859E-02  1.36477812E-19  1.30330859E-02
         7   14       2.65598185E-05  1.67000220E-16  3.02790886E+04  2.00492132E-12  3.02790886E+04
         8   10       1.29368061E-05  8.26524668E+03  1.45423884E-17  1.26867488E-18  8.26524668E+03
         8   14       1.66353121E-05  1.89620389E+04  1.23958351E-18  8.28012716E-19  1.89620389E+04
         9   11       1.34749778E-02  6.66884947E+06  7.39081531E-15  7.97874261E-16  6.66884947E+06
        10   11       3.60523565E-02  2.95131956E-17  1.06526142E+04  1.83644504E-14  1.06526142E+04
        10   14       1.07778888E-05  2.04515800E-17  8.93594410E-09  7.76059241E+02  7.76059241E+02
        11   14       9.68487001E-03  8.44835272E-15  6.10874287E+05  1.46037144E-10  6.10874287E+05
        12   15       1.98942368E-02  1.03439329E+07  1.74192250E-12  5.99512715E-18  1.03439329E+07
        13   16       1.98942368E-02  1.03439329E+07  1.74192250E-12  5.99512715E-18  1.03439329E+07
     -----------------------------------------------------------------------------------------------
--
 
++ Length and velocity gauge comparison (SO states):
 
 --------------------------------------------------
 A comparison between the dipole oscillator strengths in 
 length and velocity gauge will be performed
 
     All dipole oscillator differences above the tolerance of   1.00000000E-01  will be printed 
 
 Due to basis set deficiency these oscillator may be problematic 
 
 The tolerance is defined as ABS(1-O_l/O_v) 
 O_l : dipole oscillator strength in length gauge
 O_p : dipole oscillator strength in velocity gauge
 --------------------------------------------------
 
  Problematic transitions have been found
 
      From   To       Difference (%) Osc. st. (len.) Osc. st. (vel.)
     ---------------------------------------------------------------
         1    9            97.410840  1.10595971E-04  4.27149995E-03
         1   11            22.141668  1.99170568E-02  2.55811502E-02
         2    4      --------------- below threshold  2.20625124E-02
         2    7            21.851056  5.37984818E-03  4.41510180E-03
         3    5      --------------- below threshold  1.72900651E-05
         3    8            21.978184  5.37190925E-03  4.40399183E-03
         4    6            21.975528  5.37741753E-03  4.40860361E-03
         4   14            59.176765  1.50708851E-05  3.69174199E-05
         5    9           921.142087  7.31786180E-03  7.16635020E-04
         5   10            16.265479  4.85633832E-03  4.17693914E-03
         5   14            11.677638  4.80551242E-03  5.44087849E-03
         6    7      --------------- below threshold  3.89465218E-02
         7   14      --------------- below threshold  2.65598185E-05
         8    9      ---------------  1.04442719E-05 below threshold
         8   14            18.382645  1.35773018E-05  1.66353121E-05
         9   11            58.161983  5.63766357E-03  1.34749778E-02
        10   11            96.031412  1.43076957E-03  3.60523565E-02
        10   14          1391.671681  1.60770715E-04  1.07778888E-05
        11   14            92.944667  6.83299800E-04  9.68487001E-03
        12   15            57.554526  8.44420312E-03  1.98942368E-02
        13   16            57.554526  8.44420312E-03  1.98942368E-02
     ---------------------------------------------------------------
 
 Number of problematic transitions =                     21
 
--
 
 Electric-dipole - electric-octupole not included
++ I/O STATISTICS
 
  I. General I/O information
  - - - - - - - - - - - - - - - - - - - - - - - - - - - - - - - - - - - - - - - - - - -
  Unit  Name          Flsize      Write/Read            MBytes           Write/Read
                      (MBytes)       Calls              In/Out           Time, sec.
  - - - - - - - - - - - - - - - - - - - - - - - - - - - - - - - - - - - - - - - - - - -
   1  ANNI              0.00 .       0/       0 .      0.0/      0.0 .       0/       0
   2  RUNFILE           0.27 .     322/   10356 .      2.3/     75.0 .       0/       0
   3  ONEINT            1.46 .       0/    3453 .      0.0/   3124.3 .       0/       0
   4  JOB001            1.22 .       0/      83 .      0.0/      1.1 .       0/       0
   5  JOB002            1.22 .       0/      51 .      0.0/      1.1 .       0/       0
   6  JOB003            1.22 .       0/      51 .      0.0/      1.1 .       0/       0
  - - - - - - - - - - - - - - - - - - - - - - - - - - - - - - - - - - - - - - - - - - -
   *  TOTAL             5.39 .     322/   13994 .      2.3/   3202.7 .       0/       0
  - - - - - - - - - - - - - - - - - - - - - - - - - - - - - - - - - - - - - - - - - - -
 
  II. I/O Access Patterns
  - - - - - - - - - - - - - - - - - - - -
  Unit  Name               % of random
                         Write/Read calls
  - - - - - - - - - - - - - - - - - - - -
   1  ANNI                 0.0/   0.0
   2  RUNFILE             28.6/  10.9
   3  ONEINT               0.0/  97.6
   4  JOB001               0.0/  65.1
   5  JOB002               0.0/  74.5
   6  JOB003               0.0/  74.5
  - - - - - - - - - - - - - - - - - - - -
--
--- Stop Module: rassi at Thu Mar 21 15:00:35 2024 /rc=_RC_ALL_IS_WELL_ ---
--- Module rassi spent 5 seconds ---

.##################.
.# Happy landing! #.
.##################.

    Timing: Wall=18.49 User=16.22 System=1.96
