   This run of MOLCAS is using the pymolcas driver

                             OPE
                             OPE          NMOL  CASOP  ENMOLC A   SO
                 OPE        NMOLC        AS  OP EN  MO LC     AS  OP
                OPENM       OL CA        SO  PE NM  OL CA     SOP EN
                OP EN      MO   LC       AS  OP ENMOL  CASO   PENMOL
                OP  EN     MO   LC       AS  OP EN     MO     LC ASO
               OP   E  NMOL  C  AS       OP  EN MO     LC     AS  OP
               OP  E   NMO   LC AS        OPEN  MO     LCASOP EN   M
               O  PEN   MO  LCA  SO
            OPE   NMO   L   CAS    OP
        OPENMOL  CASOP     ENMOL   CASOPE
     OPENMOLCA   SOPENMOLCASOPEN   MOLCASOPE
    OPENMOLCAS   OP           EN   MOL    CAS
    OPENMOLCAS       OP  ENM        O     LCA
    OPENMOLCAS    OPEN  MOLCASO     P  E  NMO
    OPENMOLCAS     OP               E  N  MOL
    OPENMOLCA   SO           PENM   O  L  CAS    OPEN    MO    LCAS
    OPENMOLCA   SOP           ENM   O  L  CAS   OP  EN  MOLC  AS   O
    OPENMOLCA   SOPE           NM      O  LCA   S      OP  EN MO
    OPENMOLC                AS         O  PEN   M      OL  CA  SOPE
    OPENMO        LCASOPE  NMOL        C  ASO   P      ENMOLC     AS
    OPE     NMO      LCA  SO     P     E   NM   OL  CA SO  PE N   MO
          OPENMOLCA            SOPE   NMO        LCAS  O    P  ENMO
     OPENMOLCASOPENMOLCASOPENMOLCASOPENMOLCA
        OPENMOLCASOPENMOLCASOPENMOLCASOPE
            OPENMOLCASOPENMOLCASOPENM
               OPENMOLCASOPENMOLCA        version: v23.06
                   OPENMOLCASO
                       OPE                tag:

 OpenMolcas is free software; you can redistribute it and/or modify it
 under the terms of the GNU Lesser General Public License version 2.1.
 OpenMolcas is distributed in the hope that it will be useful, but it
 is provided "as is" and without any express or implied warranties.
 For more details see the full text of the license in the file
 LICENSE or in <http://www.gnu.org/licenses/>.

                 Copyright (C) The OpenMolcas Authors
           For the author list and the recommended citation,
                   consult the file CONTRIBUTORS.md

           *************************************************
           * pymolcas version py2.24                       *
           *   build 0399f41f8acc7cc530e7639ac37f2484      *
           *   (after the EMIL interpreter by V. Veryazov) *
           *************************************************

configuration info
------------------
Host name: manganese.itc.univie.ac.at (Linux)
C Compiler ID: GNU
C flags: -std=gnu99
Fortran Compiler ID: Intel
Fortran flags: -fpp -i8 -heap-arrays
Definitions: _MOLCAS_;_I8_;_LINUX_
Parallel: OFF (GA=OFF)


   ---------------------------------------------------------------------------
  |
  |           Project: MOLCAS
  |    Submitted from: /public/manganese/scratch/tmp/sascha.925337/WORK/master
  |      Scratch area: /public/manganese/scratch/tmp/sascha.925337/WORK/master
  |   Save outputs to: WORKDIR
  |            Molcas: /usr/license/openmolcas/v23.06_wfa
  |
  | Scratch area is NOT empty
  |
  |        MOLCASMEM = 10000
  |    MOLCAS_DRIVER = /usr/license/openmolcas/v23.06_wfa/pymolcas
  |    MOLCAS_NPROCS = 1
  |    MOLCAS_SOURCE = /usr/license/openmolcas/v23.06_wfa
  | MOLCAS_STRUCTURE = 0
  |
   ---------------------------------------------------------------------------

++ ---------   Input file   ---------

&GATEWAY
COORD=MOLCAS.xyz
GROUP=NOSYM
BASIS=cc-pvdz
AMFI
angmom
0 0 0
BASLIB
/user/sascha/development/eci/sharc_main/examples/SHARC_MOLCAS/basisset

RICD
CDTHreshold=0.0001

&SEWARD

&RASSCF
SPIN=1
NACTEL=8 0 0
INACTIVE=5
RAS2=6
ITERATIONS=200,100
CIROOT=10 10 1
ORBLISTING=NOTHING
PRWF=0.1
THRS=0.000000010000 0.000100000000 0.000100000000

>>> COPY MOLCAS.JobIph MOLCAS.1.JobIph

&RASSCF
SPIN=3
NACTEL=8 0 0
INACTIVE=5
RAS2=6
ITERATIONS=200,100
CIROOT=4 4 1
ORBLISTING=NOTHING
PRWF=0.1
THRS=0.000000010000 0.000100000000 0.000100000000

>>> COPY MOLCAS.JobIph MOLCAS.3.JobIph

>>> COPY MOLCAS.1.JobIph JOB001

&RASSI
NROFJOBIPHS
1 6
1 2 3 4 5 6
MEIN

>>> COPY MOLCAS.rassi.h5 MOLCAS.rassi.1.h5

>>> COPY MOLCAS.3.JobIph JOB001

&RASSI
NROFJOBIPHS
1 3
1 2 3
MEIN

>>> COPY MOLCAS.rassi.h5 MOLCAS.rassi.3.h5

>>> COPY MOLCAS.1.JobIph JOB001

>>> COPY MOLCAS.3.JobIph JOB002

&RASSI
NROFJOBIPHS
2 6 3
1 2 3 4 5 6
1 2 3
MEIN
SPINORBIT
SOCOUPLING=0.0d0
EJOB

>>> COPY MOLCAS.rassi.h5 MOLCAS.rassi.h5.bak

>>> COPY MOLCAS.1.JobIph JOB001

>>> COPY MOLCAS.3.JobIph JOB002

&RASSI
NROFJOBIPHS
2 6 3
1 2 3 4 5 6
1 2 3
MEIN
TRD1

&WFA
H5file = MOLCAS.rassi.h5
DoCTnumbers
ATLISTS
2
1 2 *
3 *
PROP Om POSi POSf PR CT *
LOWDIN
NXO
EXCITON
WFALEVEL 4

>>> COPY MOLCAS.3.JobIph JOB001

>>> COPY MOLCAS.rassi.h5.bak MOLCAS.rassi.h5

-- ----------------------------------

--- Start Module: gateway at Tue Mar 26 17:38:02 2024 ---
 
()()()()()()()()()()()()()()()()()()()()()()()()()()()()()()()()()()()()()()()()()()()()()()()()()()

                                              &GATEWAY

                                   only a single process is used
                       available to each process: 10 GB of memory, 1 thread?
                                            pid: 413105
()()()()()()()()()()()()()()()()()()()()()()()()()()()()()()()()()()()()()()()()()()()()()()()()()()
 
 
 
 Basis Set     1 Label: S.CC-PVDZ
 Basis set is read from library:/user/sascha/development/eci/sharc_main/examples/SHARC_MOLCAS/basisset 
 
 
 Basis Set     2 Label: H.CC-PVDZ
 Basis set is read from library:/user/sascha/development/eci/sharc_main/examples/SHARC_MOLCAS/basisset 
 
++    Symmetry information:
      ---------------------
 
                    Character Table for C1 
 
                             E  
                    a        1  x, y, xy, Rz, z, xz, Ry, yz, Rx, I
--
 
 
++    Basis set information:
      ----------------------
 
 
      Basis set label: S.CC-PVDZ.........
 
      Electronic valence basis set:
      ------------------
      Associated Effective Charge  16.000000 au
      Associated Actual Charge     16.000000 au
      Nuclear Model: Point charge
 
      Shell  nPrim  nBasis  Cartesian Spherical Contaminant
         s      12       4        X                  
         p       8       3        X                  
         d       1       1                 X         
 
 
      Basis set label: H.CC-PVDZ.........
 
      Electronic valence basis set:
      ------------------
      Associated Effective Charge   1.000000 au
      Associated Actual Charge      1.000000 au
      Nuclear Model: Point charge
 
      Shell  nPrim  nBasis  Cartesian Spherical Contaminant
         s       4       2        X                  
         p       1       1        X                  
--
 
 
++    Molecular structure info:
      -------------------------
 
                    ************************************************ 
                    **** Cartesian Coordinates / Bohr, Angstrom **** 
                    ************************************************ 
 
     Center  Label                x              y              z                     x              y              z
        1      S1               0.000000       0.000000       0.001589              0.000000       0.000000       0.000841
        2      H2               0.000000       1.842103       2.235421              0.000000       0.974799       1.182934
        3      H3              -0.188973      -1.842103       2.235421             -0.100000      -0.974799       1.182934
 
                    *************************************** 
                    *    InterNuclear Distances / Bohr    * 
                    *************************************** 
 
               1 S1            2 H2            3 H3    
    1 S1       0.000000
    2 H2       2.895401        0.000000
    3 H3       2.901562        3.689050        0.000000
 
                    ******************************************* 
                    *    InterNuclear Distances / Angstrom    * 
                    ******************************************* 
 
               1 S1            2 H2            3 H3    
    1 S1       0.000000
    2 H2       1.532180        0.000000
    3 H3       1.535440        1.952161        0.000000
 
                    ************************************** 
                    *    Valence Bond Angles / Degree    * 
                    ************************************** 
                          Atom centers                 Phi
                      2 H2       1 S1       3 H3        79.04
--
 
 
            Nuclear Potential Energy             11.31134847 au
 
--- Stop Module: gateway at Tue Mar 26 17:38:03 2024 /rc=_RC_ALL_IS_WELL_ ---

--- Start Module: seward at Tue Mar 26 17:38:03 2024 ---
 
()()()()()()()()()()()()()()()()()()()()()()()()()()()()()()()()()()()()()()()()()()()()()()()()()()

                                              &SEWARD

                                   only a single process is used
                       available to each process: 10 GB of memory, 1 thread?
                                            pid: 413108
()()()()()()()()()()()()()()()()()()()()()()()()()()()()()()()()()()()()()()()()()()()()()()()()()()
 
               SEWARD will generate:
                  Multipole Moment integrals up to order  2
                  Kinetic Energy integrals
                  Nuclear Attraction integrals (point charge)
                  One-Electron Hamiltonian integrals
                  Velocity integrals
                  Orbital angular momentum around ( 0.0000  0.0000  0.0000 )
                  Velocity quadrupole around (-0.0056  0.0000  0.1341 )
                  Atomic mean-field integrals
                  RI decomposed two-electron repulsion integrals stored Cholesky style
                   - acCD auxiliary basis
                   - CD Threshold:   0.10E-03
 
                   Integrals are discarded if absolute value <: 0.10E-13
                   Integral cutoff threshold is set to       <: 0.10E-15
 
            Nuclear Potential Energy             11.31134847 au
 
 
      Basis set specifications :
      Symmetry species         a  
      Basis functions           28
 
 
      Input file to MOLDEN was generated!
 
--- Stop Module: seward at Tue Mar 26 17:38:03 2024 /rc=_RC_ALL_IS_WELL_ ---

*** symbolic link created: INPORB -> MOLCAS.GssOrb
--- Start Module: rasscf at Tue Mar 26 17:38:03 2024 ---
 
()()()()()()()()()()()()()()()()()()()()()()()()()()()()()()()()()()()()()()()()()()()()()()()()()()

                                              &RASSCF

                                   only a single process is used
                       available to each process: 10 GB of memory, 1 thread?
                                            pid: 413111
()()()()()()()()()()()()()()()()()()()()()()()()()()()()()()()()()()()()()()()()()()()()()()()()()()
 
 
      Header of the ONEINT file:
      --------------------------
      
      Integrals generated by Gateway/Seward, Tue Mar 26 17:38:03 2024
 
 
      OrdInt status: non-squared
 
 
      Cartesian coordinates in Angstrom:
      -----------------------------------------------------
      No.  Label        X            Y            Z        
      -----------------------------------------------------
       1   S1         0.00000000   0.00000000   0.00084100
       2   H2         0.00000000   0.97479900   1.18293400
       3   H3        -0.10000000  -0.97479900   1.18293400
      -----------------------------------------------------
      Nuclear repulsion energy =   11.31134847
 
++    Wave function specifications:
      -----------------------------
 
      Number of closed shell electrons          10
      Number of electrons in active shells       8
      Max number of holes in RAS1 space          0
      Max nr of electrons in RAS3 space          0
      Number of inactive orbitals                5
      Number of active orbitals                  6
      Number of secondary orbitals              17
      Spin quantum number                      0.0
      State symmetry                             1
--
 
++    Orbital specifications:
      -----------------------
 
      Symmetry species                           1
                                                 a
      Frozen orbitals                            0
      Inactive orbitals                          5
      Active orbitals                            6
      RAS1 orbitals                              0
      RAS2 orbitals                              6
      RAS3 orbitals                              0
      Secondary orbitals                        17
      Deleted orbitals                           0
      Number of basis functions                 28
--
 
++    CI expansion specifications:
      ----------------------------
 
      Number of CSFs                           105
      Number of determinants                   120
      Number of root(s) required                10
      Root chosen for geometry opt.             10
      CI roots used                              1     2     3     4     5     6     7     8     9    10
      weights                                0.100 0.100 0.100 0.100 0.100 0.100 0.100 0.100 0.100 0.100
      highest root included in the CI           10
      max. size of the explicit Hamiltonian    105
--
 
++    Optimization specifications:
      ----------------------------
 
      RASSCF algorithm: LK RI/DF
      Maximum number of macro iterations       200
      Maximum number of SX iterations          100
      Threshold for RASSCF energy            0.100E-07
      Threshold for max MO rotation          0.100E-03
      Threshold for max BLB element          0.100E-03
      Level shift parameter                  0.500E+00
      Make Quasi-Newton update
--
 
      Orbitals from runfile: guessorb orbitals
      The MO-coefficients are taken from guessorb on runfile
 
      Total molecular charge    0.00
 
      ************************************************************************************************************************
      *                                                                                                                      *
      *                                            Wave function control section                                             *
      *                                                                                                                      *
      ************************************************************************************************************************
 
 
                                         RASSCF iterations: Energy and convergence statistics
                                         ----------------------------------------------------
 
      Iter CI   SX   CI       RASSCF       Energy    max ROT     max BLB   max BLB  Level Ln srch  Step   QN   Walltime
          iter iter root      energy       change     param      element    value   shift minimum  type update hh:mm:ss
 Nr of preliminary CI iterations:   1
        1   1   79    0  -398.26969976    0.00E+00   0.14E+00*   7  18 1  0.14E+00*  0.00   0.00    SX    NO    0:00:00
        2   1   31    0  -398.34815254   -0.78E-01* -0.67E-01*  11  13 1 -0.31E-01*  0.00   0.00    SX    NO    0:00:00
        3   1   14    0  -398.35517623   -0.70E-02*  0.27E-01*  11  13 1 -0.12E-01*  0.00   0.00    SX    NO    0:00:00
        4   1   14    0  -398.35608083   -0.90E-03*  0.12E-01*  11  13 1 -0.50E-02*  0.00   0.00    SX    NO    0:00:00
        5   1   13    0  -398.35622120   -0.14E-03*  0.76E-02*  11  13 1 -0.20E-02*  0.00   1.67    LS   YES    0:00:00
        6   1   11    0  -398.35624821   -0.27E-04*  0.36E-03*   6  13 1 -0.29E-03*  0.00   1.02    QN   YES    0:00:00
        7   1    9    0  -398.35624859   -0.38E-06* -0.12E-03*   7  12 1  0.50E-04   0.00   1.13    QN   YES    0:00:00
        8   1    6    0  -398.35624861   -0.25E-07*  0.17E-04   10  18 1  0.10E-04   0.00   1.06    QN   YES    0:00:00
        9   1    5    0  -398.35624861   -0.51E-09   0.34E-05    6  13 1  0.23E-05   0.00   1.19    QN   YES    0:00:00
      Convergence after  9 iterations
       10   1    5    0  -398.35624861   -0.27E-10   0.34E-05    7  18 1  0.22E-06   0.00   1.19    QN   YES    0:00:00
 
      ************************************************************************************************************************
                                                      Wave function printout:
                       occupation of active orbitals, and spin coupling of open shells (u,d: Spin up or down)
      ************************************************************************************************************************
 
      Note: transformation to natural orbitals
      has been made, which may change the order of the CSFs.
 
      printout of CI-coefficients larger than  0.10 for root  1
      energy=    -398.690796
      conf/sym  111111     Coeff  Weight
             1  222200  -0.95825 0.91824
             9  22u20d   0.14513 0.02106
            15  2u22d0   0.15740 0.02477
            38  2ud2ud   0.10455 0.01093
 
      printout of CI-coefficients larger than  0.10 for root  2
      energy=    -398.510185
      conf/sym  111111     Coeff  Weight
             2  222ud0   0.97503 0.95069
            11  22uudd  -0.11959 0.01430
 
      printout of CI-coefficients larger than  0.10 for root  3
      energy=    -398.476147
      conf/sym  111111     Coeff  Weight
             4  222u0d  -0.96332 0.92799
             8  22ud20  -0.11729 0.01376
            18  2u2dud  -0.14778 0.02184
            51  202u2d  -0.10848 0.01177
 
      printout of CI-coefficients larger than  0.10 for root  4
      energy=    -398.351934
      conf/sym  111111     Coeff  Weight
             9  22u20d  -0.73037 0.53344
            15  2u22d0   0.60270 0.36325
            31  220220  -0.17681 0.03126
            52  202202   0.14656 0.02148
 
      printout of CI-coefficients larger than  0.10 for root  5
      energy=    -398.347194
      conf/sym  111111     Coeff  Weight
             7  22u2d0   0.69289 0.48009
            17  2u220d  -0.64705 0.41867
            32  2202ud   0.10661 0.01137
            37  2ud220  -0.17403 0.03029
            40  2ud202   0.18508 0.03426
 
      printout of CI-coefficients larger than  0.10 for root  6
      energy=    -398.279343
      conf/sym  111111     Coeff  Weight
             7  22u2d0  -0.67683 0.45810
            17  2u220d  -0.71543 0.51184
 
      printout of CI-coefficients larger than  0.10 for root  7
      energy=    -398.265825
      conf/sym  111111     Coeff  Weight
             3  222020  -0.75501 0.57004
             6  222002   0.52938 0.28024
             9  22u20d  -0.22671 0.05140
            12  22u02d  -0.11120 0.01236
            15  2u22d0  -0.13742 0.01888
            22  2u20d2  -0.17433 0.03039
            25  u2220d   0.10376 0.01077
 
      printout of CI-coefficients larger than  0.10 for root  8
      energy=    -398.216890
      conf/sym  111111     Coeff  Weight
             1  222200   0.18343 0.03365
             3  222020  -0.24283 0.05896
             6  222002   0.12598 0.01587
             9  22u20d   0.55575 0.30885
            15  2u22d0   0.69011 0.47626
            49  202220  -0.14952 0.02236
            67  2uu2dd   0.17230 0.02969
            82  20u22d   0.12971 0.01683
 
      printout of CI-coefficients larger than  0.10 for root  9
      energy=    -398.215561
      conf/sym  111111     Coeff  Weight
            11  22uudd  -0.49939 0.24939
            16  2u2d20   0.68698 0.47194
            21  2u2d02  -0.49281 0.24286
 
      printout of CI-coefficients larger than  0.10 for root 10
      energy=    -398.208610
      conf/sym  111111     Coeff  Weight
             8  22ud20  -0.63818 0.40728
            13  22ud02   0.53179 0.28280
            19  2u2udd   0.50431 0.25433
            51  202u2d   0.11056 0.01222
            69  2uudd2  -0.11118 0.01236
 
      Natural orbitals and occupation numbers for root  1
      sym 1:   1.997178   1.960374   1.963769   1.998361   0.048817   0.031501
 
      Natural orbitals and occupation numbers for root  2
      sym 1:   1.998796   1.985431   1.961014   1.000000   0.998770   0.055989
 
      Natural orbitals and occupation numbers for root  3
      sym 1:   1.998723   1.937366   1.971250   1.000000   0.100449   0.992211
 
      Natural orbitals and occupation numbers for root  4
      sym 1:   1.976905   1.575608   1.369489   1.981513   0.469961   0.626524
 
      Natural orbitals and occupation numbers for root  5
      sym 1:   1.992044   1.520620   1.393122   1.997203   0.609612   0.487400
 
      Natural orbitals and occupation numbers for root  6
      sym 1:   1.990802   1.468051   1.513715   1.998306   0.493917   0.535208
 
      Natural orbitals and occupation numbers for root  7
      sym 1:   1.990927   1.959079   1.921243   0.208629   1.220853   0.699270
 
      Natural orbitals and occupation numbers for root  8
      sym 1:   1.982830   1.400278   1.616383   1.845087   0.733435   0.421986
 
      Natural orbitals and occupation numbers for root  9
      sym 1:   1.998007   1.269236   1.736360   1.000000   1.223390   0.773007
 
      Natural orbitals and occupation numbers for root 10
      sym 1:   1.997688   1.734333   1.270033   1.000000   1.111028   0.886918
 
      ************************************************************************************************************************
      *                                                                                                                      *
      *                                                    Final results                                                     *
      *                                                                                                                      *
      ************************************************************************************************************************
 
 
++    Wave function specifications:
      -----------------------------
 
      Number of closed shell electrons          10
      Number of electrons in active shells       8
      Max number of holes in RAS1 space          0
      Max nr of electrons in RAS3 space          0
      Number of inactive orbitals                5
      Number of active orbitals                  6
      Number of secondary orbitals              17
      Spin quantum number                      0.0
      State symmetry                             1
--
 
++    Orbital specifications:
      -----------------------
 
      Symmetry species                           1
                                                 a
      Frozen orbitals                            0
      Inactive orbitals                          5
      Active orbitals                            6
      RAS1 orbitals                              0
      RAS2 orbitals                              6
      RAS3 orbitals                              0
      Secondary orbitals                        17
      Deleted orbitals                           0
      Number of basis functions                 28
--
 
++    CI expansion specifications:
      ----------------------------
 
      Number of CSFs                           105
      Number of determinants                   120
      Number of root(s) required                10
      CI roots used                              1     2     3     4     5     6     7     8     9    10
      weights                                0.100 0.100 0.100 0.100 0.100 0.100 0.100 0.100 0.100 0.100
      highest root included in the CI           10
      Root passed to geometry opt.              10
--
 
++    Final optimization conditions:
      ------------------------------
 
      Average CI energy                            -398.35624861
      RASSCF energy for state 10                   -398.20861014
      Super-CI energy                                -0.00000000
      RASSCF energy change                           -0.00000000
      Max change in MO coefficients               0.569E-05
      Max non-diagonal density matrix element     0.337E-05
      Maximum BLB matrix element                  0.221E-06
      (orbital pair   7,  18 in symmetry   1)
      Norm of electronic gradient            0.785E-01
--
 
 
      Final state energy(ies):
      ------------------------
 
::    RASSCF root number  1 Total energy:   -398.69079613
::    RASSCF root number  2 Total energy:   -398.51018540
::    RASSCF root number  3 Total energy:   -398.47614657
::    RASSCF root number  4 Total energy:   -398.35193447
::    RASSCF root number  5 Total energy:   -398.34719447
::    RASSCF root number  6 Total energy:   -398.27934348
::    RASSCF root number  7 Total energy:   -398.26582451
::    RASSCF root number  8 Total energy:   -398.21688958
::    RASSCF root number  9 Total energy:   -398.21556141
::    RASSCF root number 10 Total energy:   -398.20861014
      Von Neumann Entropy (Root   1) =  0.28248
 

      Mulliken population analysis for root number:  1
      -----------------------------------------------
 
 
++    Molecular charges:
      ------------------
 
      Mulliken charges per centre
      ---------------------------
 
                S1      H2      H3    
      Total   16.0832  0.9584  0.9584
 
      N-E     -0.0832  0.0416  0.0416
 
      Total electronic charge=   18.000000
 
      Total            charge=   -0.000000
--
 
 

      Expectation values of various properties for root number:  1
      -----------------------------------------------------------
 
 
++    Molecular properties:
      ---------------------
 
      Charge (e):
                      =   -0.0000
      Dipole Moment (Debye):
      Origin of the operator (Ang)=    0.0000    0.0000    0.0000
                   X= -3.5552E-02               Y=  3.2014E-03               Z=  8.4440E-01           Total=  8.4515E-01
      Quadrupole Moment (Debye*Ang):
      Origin of the operator (Ang)=   -0.0030    0.0000    0.0709
                  XX= -1.6616E+01              XY=  1.7134E-01              XZ= -1.5280E-01              YY= -1.3286E+01
                  YZ=  6.5786E-03              ZZ= -1.3011E+01
      In traceless form (Debye*Ang)
                  XX= -3.4678E+00              XY=  2.5700E-01              XZ= -2.2920E-01              YY=  1.5279E+00
                  YZ=  9.8679E-03              ZZ=  1.9399E+00
--
 
      Von Neumann Entropy (Root   2) =  1.18387
 

      Mulliken population analysis for root number:  2
      -----------------------------------------------
 
 
++    Molecular charges:
      ------------------
 
      Mulliken charges per centre
      ---------------------------
 
                S1      H2      H3    
      Total   15.9103  1.0410  1.0488
 
      N-E      0.0897 -0.0410 -0.0488
 
      Total electronic charge=   18.000000
 
      Total            charge=   -0.000000
--
 
 

      Expectation values of various properties for root number:  2
      -----------------------------------------------------------
 
 
++    Molecular properties:
      ---------------------
 
      Charge (e):
                      =   -0.0000
      Dipole Moment (Debye):
      Origin of the operator (Ang)=    0.0000    0.0000    0.0000
                   X=  5.2347E-03               Y=  4.0516E-02               Z= -7.4627E-02           Total=  8.5077E-02
      Quadrupole Moment (Debye*Ang):
      Origin of the operator (Ang)=   -0.0030    0.0000    0.0709
                  XX= -1.3998E+01              XY= -1.5553E-01              XZ=  1.0876E-01              YY= -1.6936E+01
                  YZ=  9.9210E-02              ZZ= -1.6437E+01
      In traceless form (Debye*Ang)
                  XX=  2.6881E+00              XY= -2.3329E-01              XZ=  1.6314E-01              YY= -1.7186E+00
                  YZ=  1.4882E-01              ZZ= -9.6948E-01
--
 
      Von Neumann Entropy (Root   3) =  1.28442
 

      Mulliken population analysis for root number:  3
      -----------------------------------------------
 
 
++    Molecular charges:
      ------------------
 
      Mulliken charges per centre
      ---------------------------
 
                S1      H2      H3    
      Total   15.8136  1.0984  1.0880
 
      N-E      0.1864 -0.0984 -0.0880
 
      Total electronic charge=   18.000000
 
      Total            charge=   -0.000000
--
 
 

      Expectation values of various properties for root number:  3
      -----------------------------------------------------------
 
 
++    Molecular properties:
      ---------------------
 
      Charge (e):
                      =   -0.0000
      Dipole Moment (Debye):
      Origin of the operator (Ang)=    0.0000    0.0000    0.0000
                   X=  4.3957E-02               Y= -4.6795E-02               Z= -1.0960E+00           Total=  1.0979E+00
      Quadrupole Moment (Debye*Ang):
      Origin of the operator (Ang)=   -0.0030    0.0000    0.0709
                  XX= -1.4360E+01              XY= -1.1716E-01              XZ=  1.6851E-01              YY= -1.6736E+01
                  YZ= -1.2643E-01              ZZ= -1.8484E+01
      In traceless form (Debye*Ang)
                  XX=  3.2497E+00              XY= -1.7574E-01              XZ=  2.5276E-01              YY= -3.1324E-01
                  YZ= -1.8964E-01              ZZ= -2.9364E+00
--
 
      Von Neumann Entropy (Root   4) =  1.69057
 

      Mulliken population analysis for root number:  4
      -----------------------------------------------
 
 
++    Molecular charges:
      ------------------
 
      Mulliken charges per centre
      ---------------------------
 
                S1      H2      H3    
      Total   15.9938  0.9751  1.0311
 
      N-E      0.0062  0.0249 -0.0311
 
      Total electronic charge=   18.000000
 
      Total            charge=   -0.000000
--
 
 

      Expectation values of various properties for root number:  4
      -----------------------------------------------------------
 
 
++    Molecular properties:
      ---------------------
 
      Charge (e):
                      =   -0.0000
      Dipole Moment (Debye):
      Origin of the operator (Ang)=    0.0000    0.0000    0.0000
                   X=  2.5429E-02               Y=  2.2596E-01               Z= -3.2717E-01           Total=  3.9843E-01
      Quadrupole Moment (Debye*Ang):
      Origin of the operator (Ang)=   -0.0030    0.0000    0.0709
                  XX= -1.6962E+01              XY=  4.5310E-02              XZ= -1.6040E-02              YY= -1.5555E+01
                  YZ=  6.3870E-01              ZZ= -1.5811E+01
      In traceless form (Debye*Ang)
                  XX= -1.2789E+00              XY=  6.7964E-02              XZ= -2.4060E-02              YY=  8.3168E-01
                  YZ=  9.5805E-01              ZZ=  4.4721E-01
--
 
      Von Neumann Entropy (Root   5) =  1.69053
 

      Mulliken population analysis for root number:  5
      -----------------------------------------------
 
 
++    Molecular charges:
      ------------------
 
      Mulliken charges per centre
      ---------------------------
 
                S1      H2      H3    
      Total   16.0315  1.0132  0.9554
 
      N-E     -0.0315 -0.0132  0.0446
 
      Total electronic charge=   18.000000
 
      Total            charge=   -0.000000
--
 
 

      Expectation values of various properties for root number:  5
      -----------------------------------------------------------
 
 
++    Molecular properties:
      ---------------------
 
      Charge (e):
                      =   -0.0000
      Dipole Moment (Debye):
      Origin of the operator (Ang)=    0.0000    0.0000    0.0000
                   X= -1.2495E-02               Y= -2.3161E-01               Z=  1.4549E-02           Total=  2.3240E-01
      Quadrupole Moment (Debye*Ang):
      Origin of the operator (Ang)=   -0.0030    0.0000    0.0709
                  XX= -1.6996E+01              XY=  1.1112E-01              XZ= -9.0111E-02              YY= -1.5372E+01
                  YZ= -6.4650E-01              ZZ= -1.5659E+01
      In traceless form (Debye*Ang)
                  XX= -1.4804E+00              XY=  1.6669E-01              XZ= -1.3517E-01              YY=  9.5538E-01
                  YZ= -9.6975E-01              ZZ=  5.2499E-01
--
 
      Von Neumann Entropy (Root   6) =  1.64669
 

      Mulliken population analysis for root number:  6
      -----------------------------------------------
 
 
++    Molecular charges:
      ------------------
 
      Mulliken charges per centre
      ---------------------------
 
                S1      H2      H3    
      Total   15.9881  1.0057  1.0062
 
      N-E      0.0119 -0.0057 -0.0062
 
      Total electronic charge=   18.000000
 
      Total            charge=   -0.000000
--
 
 

      Expectation values of various properties for root number:  6
      -----------------------------------------------------------
 
 
++    Molecular properties:
      ---------------------
 
      Charge (e):
                      =   -0.0000
      Dipole Moment (Debye):
      Origin of the operator (Ang)=    0.0000    0.0000    0.0000
                   X= -1.5499E-02               Y=  3.6156E-03               Z=  3.7081E-01           Total=  3.7115E-01
      Quadrupole Moment (Debye*Ang):
      Origin of the operator (Ang)=   -0.0030    0.0000    0.0709
                  XX= -1.6986E+01              XY=  9.2906E-02              XZ= -5.1207E-02              YY= -1.5164E+01
                  YZ=  2.1727E-02              ZZ= -1.5756E+01
      In traceless form (Debye*Ang)
                  XX= -1.5262E+00              XY=  1.3936E-01              XZ= -7.6811E-02              YY=  1.2073E+00
                  YZ=  3.2590E-02              ZZ=  3.1891E-01
--
 
      Von Neumann Entropy (Root   7) =  1.39636
 

      Mulliken population analysis for root number:  7
      -----------------------------------------------
 
 
++    Molecular charges:
      ------------------
 
      Mulliken charges per centre
      ---------------------------
 
                S1      H2      H3    
      Total   15.5872  1.2076  1.2052
 
      N-E      0.4128 -0.2076 -0.2052
 
      Total electronic charge=   18.000000
 
      Total            charge=   -0.000000
--
 
 

      Expectation values of various properties for root number:  7
      -----------------------------------------------------------
 
 
++    Molecular properties:
      ---------------------
 
      Charge (e):
                      =   -0.0000
      Dipole Moment (Debye):
      Origin of the operator (Ang)=    0.0000    0.0000    0.0000
                   X=  8.5338E-02               Y= -1.0457E-02               Z= -2.0302E+00           Total=  2.0321E+00
      Quadrupole Moment (Debye*Ang):
      Origin of the operator (Ang)=   -0.0030    0.0000    0.0709
                  XX= -1.2170E+01              XY= -4.1457E-01              XZ=  3.8907E-01              YY= -2.0245E+01
                  YZ= -3.6689E-02              ZZ= -2.1375E+01
      In traceless form (Debye*Ang)
                  XX=  8.6401E+00              XY= -6.2186E-01              XZ=  5.8361E-01              YY= -3.4724E+00
                  YZ= -5.5034E-02              ZZ= -5.1677E+00
--
 
      Von Neumann Entropy (Root   8) =  1.73237
 

      Mulliken population analysis for root number:  8
      -----------------------------------------------
 
 
++    Molecular charges:
      ------------------
 
      Mulliken charges per centre
      ---------------------------
 
                S1      H2      H3    
      Total   15.9753  1.0134  1.0112
 
      N-E      0.0247 -0.0134 -0.0112
 
      Total electronic charge=   18.000000
 
      Total            charge=   -0.000000
--
 
 

      Expectation values of various properties for root number:  8
      -----------------------------------------------------------
 
 
++    Molecular properties:
      ---------------------
 
      Charge (e):
                      =   -0.0000
      Dipole Moment (Debye):
      Origin of the operator (Ang)=    0.0000    0.0000    0.0000
                   X= -1.3062E-02               Y= -6.3377E-03               Z=  3.0112E-01           Total=  3.0147E-01
      Quadrupole Moment (Debye*Ang):
      Origin of the operator (Ang)=   -0.0030    0.0000    0.0709
                  XX= -1.6512E+01              XY=  5.5813E-02              XZ= -8.8943E-03              YY= -1.5448E+01
                  YZ= -2.5602E-02              ZZ= -1.6336E+01
      In traceless form (Debye*Ang)
                  XX= -6.1988E-01              XY=  8.3719E-02              XZ= -1.3341E-02              YY=  9.7577E-01
                  YZ= -3.8403E-02              ZZ= -3.5589E-01
--
 
      Von Neumann Entropy (Root   9) =  2.05865
 

      Mulliken population analysis for root number:  9
      -----------------------------------------------
 
 
++    Molecular charges:
      ------------------
 
      Mulliken charges per centre
      ---------------------------
 
                S1      H2      H3    
      Total   15.7219  1.1472  1.1309
 
      N-E      0.2781 -0.1472 -0.1309
 
      Total electronic charge=   18.000000
 
      Total            charge=   -0.000000
--
 
 

      Expectation values of various properties for root number:  9
      -----------------------------------------------------------
 
 
++    Molecular properties:
      ---------------------
 
      Charge (e):
                      =   -0.0000
      Dipole Moment (Debye):
      Origin of the operator (Ang)=    0.0000    0.0000    0.0000
                   X=  6.3514E-02               Y= -4.9230E-02               Z= -1.5613E+00           Total=  1.5634E+00
      Quadrupole Moment (Debye*Ang):
      Origin of the operator (Ang)=   -0.0030    0.0000    0.0709
                  XX= -1.4493E+01              XY= -2.0337E-01              XZ=  2.5846E-01              YY= -1.8580E+01
                  YZ= -1.7285E-01              ZZ= -2.0792E+01
      In traceless form (Debye*Ang)
                  XX=  5.1925E+00              XY= -3.0506E-01              XZ=  3.8770E-01              YY= -9.3674E-01
                  YZ= -2.5927E-01              ZZ= -4.2557E+00
--
 
      Von Neumann Entropy (Root  10) =  2.08736
 

      Mulliken population analysis for root number: 10
      -----------------------------------------------
 
 
++    Molecular charges:
      ------------------
 
      Mulliken charges per centre
      ---------------------------
 
                S1      H2      H3    
      Total   15.7194  1.1335  1.1471
 
      N-E      0.2806 -0.1335 -0.1471
 
      Total electronic charge=   18.000000
 
      Total            charge=   -0.000000
--
 
 

      Expectation values of various properties for root number: 10
      -----------------------------------------------------------
 
 
++    Molecular properties:
      ---------------------
 
      Charge (e):
                      =   -0.0000
      Dipole Moment (Debye):
      Origin of the operator (Ang)=    0.0000    0.0000    0.0000
                   X=  7.9312E-02               Y=  3.6547E-02               Z= -1.8308E+00           Total=  1.8328E+00
      Quadrupole Moment (Debye*Ang):
      Origin of the operator (Ang)=   -0.0030    0.0000    0.0709
                  XX= -1.4541E+01              XY= -2.6753E-01              XZ=  2.3287E-01              YY= -1.9625E+01
                  YZ=  1.3109E-01              ZZ= -1.9864E+01
      In traceless form (Debye*Ang)
                  XX=  5.2035E+00              XY= -4.0129E-01              XZ=  3.4931E-01              YY= -2.4225E+00
                  YZ=  1.9664E-01              ZZ= -2.7810E+00
--
 
 
      Input file to MOLDEN was generated!
 
 
      Input file to MOLDEN was generated!
 
 
      Input file to MOLDEN was generated!
 
 
      Input file to MOLDEN was generated!
 
 
      Input file to MOLDEN was generated!
 
 
      Input file to MOLDEN was generated!
 
 
      Input file to MOLDEN was generated!
 
 
      Input file to MOLDEN was generated!
 
 
      Input file to MOLDEN was generated!
 
 
      Input file to MOLDEN was generated!
 
 
      Input file to MOLDEN was generated!
 
      Average orbitals are written to the RASORB file
      Natural orbitals for root   1 are written to the RASORB.1 file
      Natural orbitals for root   2 are written to the RASORB.2 file
      Natural orbitals for root   3 are written to the RASORB.3 file
      Natural orbitals for root   4 are written to the RASORB.4 file
      Natural orbitals for root   5 are written to the RASORB.5 file
      Natural orbitals for root   6 are written to the RASORB.6 file
      Natural orbitals for root   7 are written to the RASORB.7 file
      Natural orbitals for root   8 are written to the RASORB.8 file
      Natural orbitals for root   9 are written to the RASORB.9 file
      Natural orbitals for root  10 are written to the RASORB.10 file
      Spin density orbitals for root   1 are written to the SPDORB.1 file
      Spin density orbitals for root   2 are written to the SPDORB.2 file
      Spin density orbitals for root   3 are written to the SPDORB.3 file
      Spin density orbitals for root   4 are written to the SPDORB.4 file
      Spin density orbitals for root   5 are written to the SPDORB.5 file
      Spin density orbitals for root   6 are written to the SPDORB.6 file
      Spin density orbitals for root   7 are written to the SPDORB.7 file
      Spin density orbitals for root   8 are written to the SPDORB.8 file
      Spin density orbitals for root   9 are written to the SPDORB.9 file
      Spin density orbitals for root  10 are written to the SPDORB.10 file
 
 ###############################################################################
 ###############################################################################
 ###                                                                         ###
 ###                                                                         ###
 ###    WARNING: RunFile label BirthCertificate                              ###
 ###    was used       51 times                                              ###
 ###                                                                         ###
 ###                                                                         ###
 ###############################################################################
 ###############################################################################
 ###############################################################################
 ###############################################################################
 ###                                                                         ###
 ###                                                                         ###
 ###    WARNING: RunFile label nBas                                          ###
 ###    was used       59 times                                              ###
 ###                                                                         ###
 ###                                                                         ###
 ###############################################################################
 ###############################################################################
--- Stop Module: rasscf at Tue Mar 26 17:38:07 2024 /rc=_RC_ALL_IS_WELL_ ---
--- Module rasscf spent 4 seconds ---

>>> COPY MOLCAS.JobIph MOLCAS.1.JobIph

*** symbolic link created: INPORB -> MOLCAS.RasOrb
--- Start Module: rasscf at Tue Mar 26 17:38:08 2024 ---
 
()()()()()()()()()()()()()()()()()()()()()()()()()()()()()()()()()()()()()()()()()()()()()()()()()()

                                              &RASSCF

                                   only a single process is used
                       available to each process: 10 GB of memory, 1 thread?
                                            pid: 413122
()()()()()()()()()()()()()()()()()()()()()()()()()()()()()()()()()()()()()()()()()()()()()()()()()()
 
 
      Header of the ONEINT file:
      --------------------------
      
      Integrals generated by Gateway/Seward, Tue Mar 26 17:38:03 2024
 
 
      OrdInt status: non-squared
 
 
      Cartesian coordinates in Angstrom:
      -----------------------------------------------------
      No.  Label        X            Y            Z        
      -----------------------------------------------------
       1   S1         0.00000000   0.00000000   0.00084100
       2   H2         0.00000000   0.97479900   1.18293400
       3   H3        -0.10000000  -0.97479900   1.18293400
      -----------------------------------------------------
      Nuclear repulsion energy =   11.31134847
 
++    Wave function specifications:
      -----------------------------
 
      Number of closed shell electrons          10
      Number of electrons in active shells       8
      Max number of holes in RAS1 space          0
      Max nr of electrons in RAS3 space          0
      Number of inactive orbitals                5
      Number of active orbitals                  6
      Number of secondary orbitals              17
      Spin quantum number                      1.0
      State symmetry                             1
--
 
++    Orbital specifications:
      -----------------------
 
      Symmetry species                           1
                                                 a
      Frozen orbitals                            0
      Inactive orbitals                          5
      Active orbitals                            6
      RAS1 orbitals                              0
      RAS2 orbitals                              6
      RAS3 orbitals                              0
      Secondary orbitals                        17
      Deleted orbitals                           0
      Number of basis functions                 28
--
 
++    CI expansion specifications:
      ----------------------------
 
      Number of CSFs                           105
      Number of determinants                   120
      Number of root(s) required                 4
      Root chosen for geometry opt.              4
      CI roots used                              1     2     3     4
      weights                                0.250 0.250 0.250 0.250
      highest root included in the CI            4
      max. size of the explicit Hamiltonian    105
--
 
++    Optimization specifications:
      ----------------------------
 
      RASSCF algorithm: LK RI/DF
      Maximum number of macro iterations       200
      Maximum number of SX iterations          100
      Threshold for RASSCF energy            0.100E-07
      Threshold for max MO rotation          0.100E-03
      Threshold for max BLB element          0.100E-03
      Level shift parameter                  0.500E+00
      Make Quasi-Newton update
--
 
      Orbitals from runfile: rasscf orbitals
      The MO-coefficients are taken from rasscf orbitals on runfile
 
      Total molecular charge    0.00
 
      ************************************************************************************************************************
      *                                                                                                                      *
      *                                            Wave function control section                                             *
      *                                                                                                                      *
      ************************************************************************************************************************
 
 
                                         RASSCF iterations: Energy and convergence statistics
                                         ----------------------------------------------------
 
      Iter CI   SX   CI       RASSCF       Energy    max ROT     max BLB   max BLB  Level Ln srch  Step   QN   Walltime
          iter iter root      energy       change     param      element    value   shift minimum  type update hh:mm:ss
 Nr of preliminary CI iterations:   1
        1   1    8    0  -398.48098774    0.00E+00   0.43E-01*  10  12 1  0.12E-01*  0.00   0.00    SX    NO    0:00:00
        2   1    7    0  -398.48277309   -0.18E-02*  0.15E-01*   7  21 1 -0.51E-02*  0.00   0.00    SX    NO    0:00:00
        3   1    6    0  -398.48291577   -0.14E-03*  0.45E-02*   7  21 1 -0.17E-02*  0.00   0.00    SX    NO    0:00:00
        4   1    6    0  -398.48293044   -0.15E-04*  0.14E-02*   7  21 1 -0.60E-03*  0.00   0.00    SX    NO    0:00:00
        5   1    5    0  -398.48293202   -0.16E-05*  0.71E-03*   7  21 1 -0.20E-03*  0.00   1.50    LS   YES    0:00:00
        6   1    4    0  -398.48293221   -0.19E-06*  0.22E-04    9  18 1 -0.36E-04   0.00   1.00    QN   YES    0:00:00
        7   1    4    0  -398.48293221   -0.21E-08  -0.67E-05    9  18 1 -0.72E-05   0.00   2.50    QN   YES    0:00:00
      Convergence after  7 iterations
        8   1    4    0  -398.48293221   -0.26E-09  -0.67E-05    7  12 1  0.71E-06   0.00   2.50    QN   YES    0:00:00
 
      ************************************************************************************************************************
                                                      Wave function printout:
                       occupation of active orbitals, and spin coupling of open shells (u,d: Spin up or down)
      ************************************************************************************************************************
 
      Note: transformation to natural orbitals
      has been made, which may change the order of the CSFs.
 
      printout of CI-coefficients larger than  0.10 for root  1
      energy=    -398.529132
      conf/sym  111111     Coeff  Weight
             1  222uu0  -0.97712 0.95477
            20  2u2u02   0.10040 0.01008
 
      printout of CI-coefficients larger than  0.10 for root  2
      energy=    -398.503208
      conf/sym  111111     Coeff  Weight
             2  222u0u  -0.96671 0.93453
             5  22uu20   0.13172 0.01735
            19  2u2uud   0.12581 0.01583
            41  202u2u  -0.10372 0.01076
 
      printout of CI-coefficients larger than  0.10 for root  3
      energy=    -398.451020
      conf/sym  111111     Coeff  Weight
             4  22u2u0  -0.20776 0.04316
             6  22u20u  -0.53354 0.28467
            13  2u22u0  -0.79058 0.62501
            15  2u220u  -0.11585 0.01342
 
      printout of CI-coefficients larger than  0.10 for root  4
      energy=    -398.448368
      conf/sym  111111     Coeff  Weight
             4  22u2u0  -0.82006 0.67250
             6  22u20u   0.12869 0.01656
            13  2u22u0   0.19980 0.03992
            15  2u220u  -0.48696 0.23713
 
      Natural orbitals and occupation numbers for root  1
      sym 1:   1.997194   1.976187   1.965364   1.000000   0.998862   0.062392
 
      Natural orbitals and occupation numbers for root  2
      sym 1:   1.998657   1.952372   1.962502   1.000000   0.097103   0.989366
 
      Natural orbitals and occupation numbers for root  3
      sym 1:   1.995492   1.207533   1.752839   1.998887   0.796583   0.248666
 
      Natural orbitals and occupation numbers for root  4
      sym 1:   1.993819   1.787887   1.174385   1.997977   0.828760   0.217172
 
      ************************************************************************************************************************
      *                                                                                                                      *
      *                                                    Final results                                                     *
      *                                                                                                                      *
      ************************************************************************************************************************
 
 
++    Wave function specifications:
      -----------------------------
 
      Number of closed shell electrons          10
      Number of electrons in active shells       8
      Max number of holes in RAS1 space          0
      Max nr of electrons in RAS3 space          0
      Number of inactive orbitals                5
      Number of active orbitals                  6
      Number of secondary orbitals              17
      Spin quantum number                      1.0
      State symmetry                             1
--
 
++    Orbital specifications:
      -----------------------
 
      Symmetry species                           1
                                                 a
      Frozen orbitals                            0
      Inactive orbitals                          5
      Active orbitals                            6
      RAS1 orbitals                              0
      RAS2 orbitals                              6
      RAS3 orbitals                              0
      Secondary orbitals                        17
      Deleted orbitals                           0
      Number of basis functions                 28
--
 
++    CI expansion specifications:
      ----------------------------
 
      Number of CSFs                           105
      Number of determinants                   120
      Number of root(s) required                 4
      CI roots used                              1     2     3     4
      weights                                0.250 0.250 0.250 0.250
      highest root included in the CI            4
      Root passed to geometry opt.               4
--
 
++    Final optimization conditions:
      ------------------------------
 
      Average CI energy                            -398.48293221
      RASSCF energy for state  4                   -398.44836832
      Super-CI energy                                -0.00000000
      RASSCF energy change                           -0.00000000
      Max change in MO coefficients               0.182E-04
      Max non-diagonal density matrix element    -0.673E-05
      Maximum BLB matrix element                  0.714E-06
      (orbital pair   7,  12 in symmetry   1)
      Norm of electronic gradient            0.606E-01
--
 
 
      Final state energy(ies):
      ------------------------
 
::    RASSCF root number  1 Total energy:   -398.52913221
::    RASSCF root number  2 Total energy:   -398.50320829
::    RASSCF root number  3 Total energy:   -398.45102003
::    RASSCF root number  4 Total energy:   -398.44836832
      Von Neumann Entropy (Root   1) =  1.20017
 

      Mulliken population analysis for root number:  1
      -----------------------------------------------
 
 
++    Molecular charges:
      ------------------
 
      Mulliken charges per centre
      ---------------------------
 
                S1      H2      H3    
      Total   15.8784  1.0550  1.0666
 
      N-E      0.1216 -0.0550 -0.0666
 
      Total electronic charge=   18.000000
 
      Total            charge=   -0.000000
--
 
 

      Expectation values of various properties for root number:  1
      -----------------------------------------------------------
 
 
++    Molecular properties:
      ---------------------
 
      Charge (e):
                      =   -0.0000
      Dipole Moment (Debye):
      Origin of the operator (Ang)=    0.0000    0.0000    0.0000
                   X=  8.9395E-03               Y=  5.0459E-02               Z= -1.5016E-01           Total=  1.5866E-01
      Quadrupole Moment (Debye*Ang):
      Origin of the operator (Ang)=   -0.0030    0.0000    0.0709
                  XX= -1.3854E+01              XY= -1.4854E-01              XZ=  1.1161E-01              YY= -1.6637E+01
                  YZ=  1.2198E-01              ZZ= -1.6332E+01
      In traceless form (Debye*Ang)
                  XX=  2.6308E+00              XY= -2.2281E-01              XZ=  1.6742E-01              YY= -1.5438E+00
                  YZ=  1.8297E-01              ZZ= -1.0870E+00
--
 

      Mulliken spin population analysis for root number:  1
      ---------------------------------------------------
 
 
++    Molecular charges:
      ------------------
 
      Mulliken spin population per centre
      ---------------------------
 
                S1      H2      H3    
      Total    1.3459  0.3121  0.3420
 
      Total electronic spin=    2.000000
--
 
 
      Von Neumann Entropy (Root   2) =  1.27591
 

      Mulliken population analysis for root number:  2
      -----------------------------------------------
 
 
++    Molecular charges:
      ------------------
 
      Mulliken charges per centre
      ---------------------------
 
                S1      H2      H3    
      Total   15.7759  1.1189  1.1052
 
      N-E      0.2241 -0.1189 -0.1052
 
      Total electronic charge=   18.000000
 
      Total            charge=   -0.000000
--
 
 

      Expectation values of various properties for root number:  2
      -----------------------------------------------------------
 
 
++    Molecular properties:
      ---------------------
 
      Charge (e):
                      =   -0.0000
      Dipole Moment (Debye):
      Origin of the operator (Ang)=    0.0000    0.0000    0.0000
                   X=  3.4955E-02               Y= -5.2498E-02               Z= -8.9007E-01           Total=  8.9230E-01
      Quadrupole Moment (Debye*Ang):
      Origin of the operator (Ang)=   -0.0030    0.0000    0.0709
                  XX= -1.4194E+01              XY= -1.1262E-01              XZ=  1.5644E-01              YY= -1.6496E+01
                  YZ= -1.4401E-01              ZZ= -1.8054E+01
      In traceless form (Debye*Ang)
                  XX=  3.0814E+00              XY= -1.6892E-01              XZ=  2.3466E-01              YY= -3.7153E-01
                  YZ= -2.1601E-01              ZZ= -2.7098E+00
--
 

      Mulliken spin population analysis for root number:  2
      ---------------------------------------------------
 
 
++    Molecular charges:
      ------------------
 
      Mulliken spin population per centre
      ---------------------------
 
                S1      H2      H3    
      Total    1.2024  0.4137  0.3838
 
      Total electronic spin=    2.000000
--
 
 
      Von Neumann Entropy (Root   3) =  1.51327
 

      Mulliken population analysis for root number:  3
      -----------------------------------------------
 
 
++    Molecular charges:
      ------------------
 
      Mulliken charges per centre
      ---------------------------
 
                S1      H2      H3    
      Total   16.0566  0.9531  0.9903
 
      N-E     -0.0566  0.0469  0.0097
 
      Total electronic charge=   18.000000
 
      Total            charge=   -0.000000
--
 
 

      Expectation values of various properties for root number:  3
      -----------------------------------------------------------
 
 
++    Molecular properties:
      ---------------------
 
      Charge (e):
                      =   -0.0000
      Dipole Moment (Debye):
      Origin of the operator (Ang)=    0.0000    0.0000    0.0000
                   X= -1.4192E-03               Y=  3.6455E-01               Z=  4.7563E-01           Total=  5.9927E-01
      Quadrupole Moment (Debye*Ang):
      Origin of the operator (Ang)=   -0.0030    0.0000    0.0709
                  XX= -1.6801E+01              XY=  8.6145E-02              XZ= -3.3127E-02              YY= -1.4579E+01
                  YZ=  6.6592E-01              ZZ= -1.5217E+01
      In traceless form (Debye*Ang)
                  XX= -1.9039E+00              XY=  1.2922E-01              XZ= -4.9691E-02              YY=  1.4304E+00
                  YZ=  9.9888E-01              ZZ=  4.7349E-01
--
 

      Mulliken spin population analysis for root number:  3
      ---------------------------------------------------
 
 
++    Molecular charges:
      ------------------
 
      Mulliken spin population per centre
      ---------------------------
 
                S1      H2      H3    
      Total    0.9965  0.2627  0.7408
 
      Total electronic spin=    2.000000
--
 
 
      Von Neumann Entropy (Root   4) =  1.47600
 

      Mulliken population analysis for root number:  4
      -----------------------------------------------
 
 
++    Molecular charges:
      ------------------
 
      Mulliken charges per centre
      ---------------------------
 
                S1      H2      H3    
      Total   16.0286  1.0039  0.9675
 
      N-E     -0.0286 -0.0039  0.0325
 
      Total electronic charge=   18.000000
 
      Total            charge=   -0.000000
--
 
 

      Expectation values of various properties for root number:  4
      -----------------------------------------------------------
 
 
++    Molecular properties:
      ---------------------
 
      Charge (e):
                      =   -0.0000
      Dipole Moment (Debye):
      Origin of the operator (Ang)=    0.0000    0.0000    0.0000
                   X= -1.5542E-02               Y= -3.6162E-01               Z= -7.1084E-02           Total=  3.6887E-01
      Quadrupole Moment (Debye*Ang):
      Origin of the operator (Ang)=   -0.0030    0.0000    0.0709
                  XX= -1.6716E+01              XY=  9.4220E-02              XZ= -1.3048E-01              YY= -1.5427E+01
                  YZ= -6.5239E-01              ZZ= -1.4433E+01
      In traceless form (Debye*Ang)
                  XX= -1.7860E+00              XY=  1.4133E-01              XZ= -1.9573E-01              YY=  1.4686E-01
                  YZ= -9.7858E-01              ZZ=  1.6391E+00
--
 

      Mulliken spin population analysis for root number:  4
      ---------------------------------------------------
 
 
++    Molecular charges:
      ------------------
 
      Mulliken spin population per centre
      ---------------------------
 
                S1      H2      H3    
      Total    1.1275  0.6740  0.1984
 
      Total electronic spin=    2.000000
--
 
 
 
      Input file to MOLDEN was generated!
 
 
      Input file to MOLDEN was generated!
 
 
      Input file to MOLDEN was generated!
 
 
      Input file to MOLDEN was generated!
 
 
      Input file to MOLDEN was generated!
 
      Average orbitals are written to the RASORB file
      Natural orbitals for root   1 are written to the RASORB.1 file
      Natural orbitals for root   2 are written to the RASORB.2 file
      Natural orbitals for root   3 are written to the RASORB.3 file
      Natural orbitals for root   4 are written to the RASORB.4 file
      Spin density orbitals for root   1 are written to the SPDORB.1 file
      Spin density orbitals for root   2 are written to the SPDORB.2 file
      Spin density orbitals for root   3 are written to the SPDORB.3 file
      Spin density orbitals for root   4 are written to the SPDORB.4 file
 
--- Stop Module: rasscf at Tue Mar 26 17:38:10 2024 /rc=_RC_ALL_IS_WELL_ ---
--- Module rasscf spent 2 seconds ---

>>> COPY MOLCAS.JobIph MOLCAS.3.JobIph

>>> COPY MOLCAS.1.JobIph JOB001

*** symbolic link created: INPORB -> MOLCAS.RasOrb
--- Start Module: rassi at Tue Mar 26 17:38:10 2024 ---
 
()()()()()()()()()()()()()()()()()()()()()()()()()()()()()()()()()()()()()()()()()()()()()()()()()()

                                               &RASSI

                                   only a single process is used
                       available to each process: 10 GB of memory, 1 thread?
                                            pid: 413125
()()()()()()()()()()()()()()()()()()()()()()()()()()()()()()()()()()()()()()()()()()()()()()()()()()
 
 
      ********************************************************************************
      *                                                                              *
      *                             General data section                             *
      *                                                                              *
      ********************************************************************************
 
   Specific data for JOBIPH file 
 JOB001                                                                         
                                                  
   -------------------------------------
 
   Header from SEWARD:
                                                                               
        Integrals generated by Gateway/Seward, Tue Mar 26 17:38:03 2024        
 
   CASSCF title (first line only):
       (No title given)                                                        
 
   STATE IRREP:                             1
   SPIN MULTIPLICITY:                       1
   ACTIVE ELECTRONS:                        8
   MAX RAS1 HOLES:                          0
   MAX RAS3 ELECTRONS:                      0
   NR OF CONFIG:                          105
 
   The following data are common to all the states:
   ------------------------------------------------
   (note: frozen counts as inactive, deleted as secondary)
 
      Nr of irreps: 1
 
                 Total     No./Irrep 
      Irrep                  1
                             a
 
      INACTIVE       5       5
      ACTIVE         6       6
      SECONDARY     17      17
      BASIS         28      28
 
      RAS1           0       0
      RAS2           6       6
      RAS3           0       0
 
        MATRIX ELEMENTS WILL BE COMPUTED FOR THE FOLLOWING ONE-ELECTRON OPERATOR
 S, UNLESS ZERO BY SYMMETRY.
   (Herm=Hermitian, Anti=Antihermitian, Sing=Singlet operator, Trip=Triplet oper
 ator)
     MLTPL  0   1 (HERMSING)     MLTPL  1   1 (HERMSING)     MLTPL  1   2 (HERMSING)
     MLTPL  1   3 (HERMSING)     MLTPL  2   1 (HERMSING)     MLTPL  2   2 (HERMSING)
     MLTPL  2   3 (HERMSING)     MLTPL  2   4 (HERMSING)     MLTPL  2   5 (HERMSING)
     MLTPL  2   6 (HERMSING)     VELOCITY   1 (ANTISING)     VELOCITY   2 (ANTISING)
     VELOCITY   3 (ANTISING)     ANGMOM     1 (ANTISING)     ANGMOM     2 (ANTISING)
     ANGMOM     3 (ANTISING)     MLTPV  2   1 (ANTISING)     MLTPV  2   2 (ANTISING)
     MLTPV  2   3 (ANTISING)     MLTPV  2   4 (ANTISING)     MLTPV  2   5 (ANTISING)
     MLTPV  2   6 (ANTISING)
 
       EIGENSTATES OF A SPIN-FREE HAMILTONIAN WILL BE COMPUTED BASED ON:
 
  A Hamiltonian matrix computed by RASSI.
 
  Nr of states:                     6
 
   State:        1   2   3   4   5   6
  JobIph:        1   1   1   1   1   1
 Root nr:        1   2   3   4   5   6
 
  HAMILTONIAN MATRIX FOR THE ORIGINAL STATES:
 
  Diagonal, with energies
   -398.69079613   -398.51018540   -398.47614656   -398.35193447   -398.34719447
   -398.27934348
 
      OVERLAP MATRIX FOR THE ORIGINAL STATES:
 
  Diagonal, with elements
      1.00000000      1.00000000      1.00000000      1.00000000      1.00000000
      1.00000000
 
++ Matrix elements for input states
   --------------------------------
 
  MATRIX ELEMENTS OF 1-ELECTRON OPERATORS
  FOR THE RASSCF INPUT WAVE FUNCTIONS:
 
 
 PROPERTY: MLTPL  0   COMPONENT:*   1
 ORIGIN    :   0.00000000D+00   0.00000000D+00   0.00000000D+00
 STATE     :       1                2                3                4
 
     1       -0.120792265E-12 -0.680919086E-15 -0.380597552E-15  0.175532332E-15
     2       -0.680919086E-15 -0.120792265E-12  0.193428444E-16  0.380436143E-15
     3       -0.380597552E-15  0.193428444E-16 -0.117239551E-12 -0.322288056E-15
     4        0.175532332E-15  0.380436143E-15 -0.322288056E-15 -0.120792265E-12
     5        0.513261308E-15 -0.356857872E-15  0.293689590E-15 -0.125368161E-14
     6        0.242192342E-14  0.346395641E-15  0.433327465E-15 -0.338178751E-15
 
 
 PROPERTY: MLTPL  0   COMPONENT:*   1
 ORIGIN    :   0.00000000D+00   0.00000000D+00   0.00000000D+00
 STATE     :       5                6
 
     1        0.513261308E-15  0.242192342E-14
     2       -0.356857872E-15  0.346395641E-15
     3        0.293689590E-15  0.433327465E-15
     4       -0.125368161E-14 -0.338178751E-15
     5       -0.120792265E-12  0.112504949E-14
     6        0.112504949E-14 -0.124344979E-12
 
 
 PROPERTY: MLTPL  1   COMPONENT:*   1
 ORIGIN    :   0.00000000D+00   0.00000000D+00   0.00000000D+00
 STATE     :       1                2                3                4
 
     1       -0.139872020E-01 -0.746901289E-03  0.623675035E-01 -0.113594560E-01
     2       -0.746901289E-03  0.205949354E-02 -0.314221289E-01 -0.146642611E-01
     3        0.623675035E-01 -0.314221289E-01  0.172940133E-01  0.252649356    
     4       -0.113594560E-01 -0.146642611E-01  0.252649356      0.100043465E-01
     5        0.103245887E-01  0.182784810      0.154022662E-01 -0.422388065E-01
     6       -0.966839779E-01 -0.227618081     -0.152826021E-02 -0.123579561E-02
 
 
 PROPERTY: MLTPL  1   COMPONENT:*   1
 ORIGIN    :   0.00000000D+00   0.00000000D+00   0.00000000D+00
 STATE     :       5                6
 
     1        0.103245887E-01 -0.966839779E-01
     2        0.182784810     -0.227618081    
     3        0.154022662E-01 -0.152826021E-02
     4       -0.422388065E-01 -0.123579561E-02
     5       -0.491604219E-02  0.921767496E-03
     6        0.921767496E-03 -0.609781879E-02
 
 
 PROPERTY: MLTPL  1   COMPONENT:*   2
 ORIGIN    :   0.00000000D+00   0.00000000D+00   0.00000000D+00
 STATE     :       1                2                3                4
 
     1        0.125952279E-02  0.383105227E-04 -0.319899295E-02 -0.133849100E-01
     2        0.383105227E-04  0.159401896E-01 -0.609751146      0.752168451E-03
     3       -0.319899295E-02 -0.609751146     -0.184107573E-01 -0.129590488E-01
     4       -0.133849100E-01  0.752168451E-03 -0.129590488E-01  0.888980613E-01
     5        0.212378311     -0.937551284E-02 -0.790022662E-03 -0.831281050    
     6        -1.87559660      0.116751290E-01  0.783884861E-04 -0.232540099E-01
 
 
 PROPERTY: MLTPL  1   COMPONENT:*   2
 ORIGIN    :   0.00000000D+00   0.00000000D+00   0.00000000D+00
 STATE     :       5                6
 
     1        0.212378311      -1.87559660    
     2       -0.937551284E-02  0.116751290E-01
     3       -0.790022662E-03  0.783884861E-04
     4       -0.831281050     -0.232540099E-01
     5       -0.911226693E-01 -0.586339119E-03
     6       -0.586339119E-03  0.142247882E-02
 
 
 PROPERTY: MLTPL  1   COMPONENT:*   3
 ORIGIN    :   0.00000000D+00   0.00000000D+00   0.00000000D+00
 STATE     :       1                2                3                4
 
     1        0.332210833     -0.315923090E-04  0.263801169E-02  0.252327416    
     2       -0.315923090E-04 -0.293603389E-01  0.346097469E-02 -0.620266781E-03
     3        0.263801169E-02  0.346097469E-02 -0.431188502      0.106865262E-01
     4        0.252327416     -0.620266781E-03  0.106865262E-01 -0.128718853    
     5        0.134487335E-01  0.773140564E-02  0.651482863E-03 -0.945156403E-02
     6        0.113410891E-01 -0.962775687E-02 -0.646420703E-04  0.101745945E-02
 
 
 PROPERTY: MLTPL  1   COMPONENT:*   3
 ORIGIN    :   0.00000000D+00   0.00000000D+00   0.00000000D+00
 STATE     :       5                6
 
     1        0.134487335E-01  0.113410891E-01
     2        0.773140564E-02 -0.962775687E-02
     3        0.651482863E-03 -0.646420703E-04
     4       -0.945156403E-02  0.101745945E-02
     5        0.572419666E-02 -0.225033237E-01
     6       -0.225033237E-01  0.145888751    
 
 
 PROPERTY: MLTPL  2   COMPONENT:*   1
 ORIGIN    :  -0.56035333D-02   0.00000000D+00   0.13406721D+00
 STATE     :       1                2                3                4
 
     1        -12.3538325      0.596633706E-01 -0.283629688E-01  0.115940954    
     2        0.596633706E-01  -10.4073303      0.153487963E-01  0.447800977E-01
     3       -0.283629688E-01  0.153487963E-01  -10.6765677      0.539013412E-01
     4        0.115940954      0.447800977E-01  0.539013412E-01  -12.6107496    
     5        0.830481168E-02  0.559926272E-01  0.617150008E-01  0.195744634E-01
     6        0.129343312E-01 -0.505697969E-01  0.541728795E-01  0.873388221E-02
 
 
 PROPERTY: MLTPL  2   COMPONENT:*   1
 ORIGIN    :  -0.56035333D-02   0.00000000D+00   0.13406721D+00
 STATE     :       5                6
 
     1        0.830481168E-02  0.129343312E-01
     2        0.559926272E-01 -0.505697969E-01
     3        0.617150008E-01  0.541728795E-01
     4        0.195744634E-01  0.873388221E-02
     5        -12.6357695     -0.202957193    
     6       -0.202957193      -12.6287711    
 
 
 PROPERTY: MLTPL  2   COMPONENT:*   2
 ORIGIN    :  -0.56035333D-02   0.00000000D+00   0.13406721D+00
 STATE     :       1                2                3                4
 
     1        0.127383713      0.576218663      0.740527046E-02  0.196436155E-01
     2        0.576218663     -0.115630569      0.127414231      0.472655108    
     3        0.740527046E-02  0.127414231     -0.871052851E-01 -0.253805522E-01
     4        0.196436155E-01  0.472655108     -0.253805522E-01  0.336865429E-01
     5        0.211818351E-01  0.157609470E-01  0.564160978      0.185717331    
     6        0.123461252     -0.682297425E-02  0.530497956     -0.200144713E-02
 
 
 PROPERTY: MLTPL  2   COMPONENT:*   2
 ORIGIN    :  -0.56035333D-02   0.00000000D+00   0.13406721D+00
 STATE     :       5                6
 
     1        0.211818351E-01  0.123461252    
     2        0.157609470E-01 -0.682297425E-02
     3        0.564160978      0.530497956    
     4        0.185717331     -0.200144713E-02
     5        0.826178466E-01  0.452404562E-01
     6        0.452404562E-01  0.690734611E-01
 
 
 PROPERTY: MLTPL  2   COMPONENT:*   3
 ORIGIN    :  -0.56035333D-02   0.00000000D+00   0.13406721D+00
 STATE     :       1                2                3                4
 
     1       -0.113602133     -0.340584442E-02  0.342774757      0.225988609E-01
     2       -0.340584442E-02  0.808591776E-01 -0.155551443      0.461639819E-01
     3        0.342774757     -0.155551443      0.125282454     -0.665125494    
     4        0.225988609E-01  0.461639819E-01 -0.665125494     -0.119254036E-01
     5       -0.233830144E-01 -0.639846807     -0.421726169E-01 -0.225230948    
     6       -0.149843904      0.586865907      0.576663570E-02 -0.357940617E-02
 
 
 PROPERTY: MLTPL  2   COMPONENT:*   3
 ORIGIN    :  -0.56035333D-02   0.00000000D+00   0.13406721D+00
 STATE     :       5                6
 
     1       -0.233830144E-01 -0.149843904    
     2       -0.639846807      0.586865907    
     3       -0.421726169E-01  0.576663570E-02
     4       -0.225230948     -0.357940617E-02
     5       -0.669954717E-01  0.537084214E-01
     6        0.537084214E-01 -0.380713086E-01
 
 
 PROPERTY: MLTPL  2   COMPONENT:*   4
 ORIGIN    :  -0.56035333D-02   0.00000000D+00   0.13406721D+00
 STATE     :       1                2                3                4
 
     1        -9.87766785     -0.592685064E-01 -0.685050437E-03  0.519773293    
     2       -0.592685064E-01  -12.5914847     -0.103355454E-01 -0.486052565E-01
     3       -0.685050437E-03 -0.103355454E-01  -12.4425170      0.246185947E-02
     4        0.519773293     -0.486052565E-01  0.246185947E-02  -11.5646458    
     5        0.256731232E-01 -0.176415358E-02 -0.580369636E-01 -0.168024268E-01
     6        0.115726253E-01  0.832982294E-03 -0.545637913E-01 -0.364714095E-01
 
 
 PROPERTY: MLTPL  2   COMPONENT:*   4
 ORIGIN    :  -0.56035333D-02   0.00000000D+00   0.13406721D+00
 STATE     :       5                6
 
     1        0.256731232E-01  0.115726253E-01
     2       -0.176415358E-02  0.832982294E-03
     3       -0.580369636E-01 -0.545637913E-01
     4       -0.168024268E-01 -0.364714095E-01
     5        -11.4284942      0.680800312    
     6        0.680800312      -11.2739489    
 
 
 PROPERTY: MLTPL  2   COMPONENT:*   5
 ORIGIN    :  -0.56035333D-02   0.00000000D+00   0.13406721D+00
 STATE     :       1                2                3                4
 
     1        0.489101275E-02  0.246769527E-01 -0.173301255E-01  0.253595990E-01
     2        0.246769527E-01  0.737605407E-01  -3.02755177      0.177215795E-01
     3       -0.173301255E-01  -3.02755177     -0.939968778E-01  0.331594327E-01
     4        0.253595990E-01  0.177215795E-01  0.331594327E-01  0.474855540    
     5       -0.477199354      0.336075567E-01  0.261598392E-01  -4.41171136    
     6        -2.90513971     -0.305002049E-01  0.222606722E-01 -0.744129586E-02
 
 
 PROPERTY: MLTPL  2   COMPONENT:*   5
 ORIGIN    :  -0.56035333D-02   0.00000000D+00   0.13406721D+00
 STATE     :       5                6
 
     1       -0.477199354      -2.90513971    
     2        0.336075567E-01 -0.305002049E-01
     3        0.261598392E-01  0.222606722E-01
     4        -4.41171136     -0.744129586E-02
     5       -0.480658276      0.218183537E-02
     6        0.218183537E-02  0.161533784E-01
 
 
 PROPERTY: MLTPL  2   COMPONENT:*   6
 ORIGIN    :  -0.56035333D-02   0.00000000D+00   0.13406721D+00
 STATE     :       1                2                3                4
 
     1        -9.67347464     -0.394863951E-03  0.290480193E-01 -0.387637446    
     2       -0.394863951E-03  -12.2201946      0.838938577E-02  0.382515844E-02
     3        0.290480193E-01  0.838938577E-02  -13.7426965     -0.563632006E-01
     4       -0.387637446      0.382515844E-02 -0.563632006E-01  -11.7552082    
     5       -0.196300226E-01 -0.542284736E-01 -0.367803762E-02 -0.244750457E-01
     6        0.199256230E-01  0.497368146E-01  0.390911576E-03  0.842852510E-01
 
 
 PROPERTY: MLTPL  2   COMPONENT:*   6
 ORIGIN    :  -0.56035333D-02   0.00000000D+00   0.13406721D+00
 STATE     :       5                6
 
     1       -0.196300226E-01  0.199256230E-01
     2       -0.542284736E-01  0.497368146E-01
     3       -0.367803762E-02  0.390911576E-03
     4       -0.244750457E-01  0.842852510E-01
     5        -11.6418151      -1.47012711    
     6        -1.47012711      -11.7142594    
 
 
 PROPERTY: VELOCITY   COMPONENT:*   1
 ORIGIN    :   0.00000000D+00   0.00000000D+00   0.00000000D+00
 STATE     :       1                2                3                4
 
     1        0.123347798E-17 -0.371544699E-03  0.273228434E-01  0.444724172E-02
     2        0.371544699E-03 -0.358869184E-18 -0.843056881E-03  0.210648140E-02
     3       -0.273228434E-01  0.843056881E-03  0.545204956E-17 -0.481076070E-01
     4       -0.444724172E-02 -0.210648140E-02  0.481076070E-01 -0.378276854E-17
     5        0.223241587E-02  0.213409910E-01  0.281468498E-02  0.406716957E-03
     6       -0.359064547E-01 -0.428144738E-01 -0.103678924E-04 -0.837898777E-03
 
 
 PROPERTY: VELOCITY   COMPONENT:*   1
 ORIGIN    :   0.00000000D+00   0.00000000D+00   0.00000000D+00
 STATE     :       5                6
 
     1       -0.223241587E-02  0.359064547E-01
     2       -0.213409910E-01  0.428144738E-01
     3       -0.281468498E-02  0.103678924E-04
     4       -0.406716957E-03  0.837898777E-03
     5        0.475465336E-17  0.108180858E-04
     6       -0.108180858E-04  0.234103627E-17
 
 
 PROPERTY: VELOCITY   COMPONENT:*   2
 ORIGIN    :   0.00000000D+00   0.00000000D+00   0.00000000D+00
 STATE     :       1                2                3                4
 
     1       -0.238465683E-16  0.190575001E-04 -0.140146029E-02  0.306621203E-02
     2       -0.190575001E-04  0.310689943E-16 -0.165269497E-01 -0.108046956E-03
     3        0.140146029E-02  0.165269497E-01 -0.194415862E-16  0.246756550E-02
     4       -0.306621203E-02  0.108046956E-03 -0.246756550E-02 -0.564581688E-16
     5        0.480000549E-01 -0.109463548E-02 -0.144372595E-03  0.798160261E-02
     6       -0.696601106      0.219606678E-02  0.531788887E-06 -0.164062828E-01
 
 
 PROPERTY: VELOCITY   COMPONENT:*   2
 ORIGIN    :   0.00000000D+00   0.00000000D+00   0.00000000D+00
 STATE     :       5                6
 
     1       -0.480000549E-01  0.696601106    
[...]

Mulliken Population Analysis
    Atom      Charge (e)              h+              e-           Del q
------------------------------------------------------------------------
1 S1            0.011940        0.522745       -0.427629        0.095116
2 H2           -0.005705        0.225861       -0.273181       -0.047320
3 H3           -0.006235        0.231669       -0.279465       -0.047796
------------------------------------------------------------------------
    Sum:       -0.000000        0.980275       -0.980275        0.000000

Lowdin Population Analysis
    Atom      Charge (e)              h+              e-           Del q
------------------------------------------------------------------------
1 S1           -0.009221        0.604378       -0.462098        0.142280
2 H2            0.005189        0.185520       -0.256056       -0.070537
3 H3            0.004033        0.190377       -0.262120       -0.071743
------------------------------------------------------------------------
    Sum:       -0.000000        0.980275       -0.980275        0.000000

Multipole moment analysis of the density matrix
  Molecular charge:                      -0.000000
  Number of electrons:                   18.000000
    Center of electronic charge [Ang]: [ -0.005376,  -0.000042,   0.127896]
  Total nuclear charge:                  18.000000
    Center of nuclear charge [Ang]:    [ -0.005556,   0.000000,   0.132185]
  Dipole moment [D]:                     0.371154
    Cartesian components [D]:          [ -0.015499,   0.003616,   0.370812]
  RMS size of the density [Ang]:         0.893712
    Cartesian components [Ang]:        [  0.443839,   0.530068,   0.566354]

Exciton analysis of the difference density matrix
  <r_h> [Ang]:                  [ -0.020614,  -0.004863,   0.482294]
  <r_e> [Ang]:                  [ -0.024873,  -0.004951,   0.582875]
  |<r_e - r_h>| [Ang]:            0.100672
  Hole size [Ang]:                1.366216
    Cartesian components [Ang]: [  0.511096,   0.910456,   0.881135]
  Electron size [Ang]:            1.683418
    Cartesian components [Ang]: [  0.582744,   1.108059,   1.125394]

  RASSI analysis for transiton from state 1 to 6 (S0-S5)
  ------------------------------------------------------
Energy: 11.196 eV

NTOs
  Leading SVs:
     0.5072   0.4408   0.0059
  Sum of SVs (Omega):               0.957039
  Participation ratio (PR_NTO):     2.028331
  Entanglement entropy (S_HE):      1.087760
  Nr of entangled states (Z_HE):    2.125438
  Renormalized S_HE/Z_HE:  1.073238 /  2.104151

CT numbers (Mulliken)
  omega        =     0.9570
 2<alpha|beta> =     0.9570
  LOC          =     0.0906
  <Phe>        =    -0.1885

CT numbers (Lowdin)
  omega        =     0.9570
 2<alpha|beta> =     0.9570
  LOC          =     0.0662
  <Phe>        =    -0.1885

Exciton analysis of the transition density matrix
  Trans. dipole moment [D]:             4.773708
    Cartesian components [D]:         [ -0.245746,  -4.767291,   0.028826]
  Transition <r^2> [a.u.]:              0.029290
    Cartesian components [a.u.]:      [ -0.014018,  -0.011573,  -0.022967]
  <r_h> [Ang]:                        [ -0.018688,  -0.004181,   0.437592]
  <r_e> [Ang]:                        [ -0.028286,  -0.006288,   0.661956]
  |<r_e - r_h>| [Ang]:                  0.224579
  Hole size [Ang]:                      1.346866
    Cartesian components [Ang]:       [  0.506914,   0.895137,   0.869377]
  Electron size [Ang]:                  1.670700
    Cartesian components [Ang]:       [  0.583381,   1.114892,   1.099055]
  RMS electron-hole separation [Ang]:   2.127564
    Cartesian components [Ang]:       [  0.772647,   1.350627,   1.450982]
  Covariance(r_h, r_e) [Ang^2]:         0.064597
  Correlation coefficient:              0.028707
  Center-of-mass size [Ang]:            1.087943
    Cartesian components [Ang]:       [  0.386555,   0.752382,   0.684190]

  RASSI analysis for state T1
  ---------------------------
Energy: 4.3991 eV

Using spin-traced density matrices ...

NOs
  Occupation of frontier NOs:
     0.0000   0.0624   0.9989   1.0000   1.9654   1.9762
  Number of electrons: 18.000000
  Number of unpaired electrons: n_u =  2.12251, n_u,nl =  2.02149
  NO participation ratio (PR_NO):  2.248707

NDOs
  Leading detachment eigenvalues:
    -0.9984  -0.1119  -0.0176
  Leading attachment eigenvalues:
     0.9691   0.1423   0.0145
  Number of detached / attached electrons: p_D =  1.1360, p_A =  1.1360
  Number of involved orbitals: PR_D =  1.278074, PR_A =  1.344743

Mulliken Population Analysis
    Atom      Charge (e)              h+              e-           Del q
------------------------------------------------------------------------
1 S1            0.121566        0.978113       -0.773372        0.204741
2 H2           -0.054998        0.078973       -0.175586       -0.096613
3 H3           -0.066568        0.078899       -0.187027       -0.108128
------------------------------------------------------------------------
    Sum:       -0.000000        1.135985       -1.135985        0.000000

Lowdin Population Analysis
    Atom      Charge (e)              h+              e-           Del q
------------------------------------------------------------------------
1 S1            0.161258        1.017847       -0.705087        0.312760
2 H2           -0.074451        0.059027       -0.209204       -0.150177
3 H3           -0.086807        0.059111       -0.221694       -0.162583
------------------------------------------------------------------------
    Sum:       -0.000000        1.135985       -1.135985        0.000000

Multipole moment analysis of the density matrix
  Molecular charge:                      -0.000000
  Number of electrons:                   18.000000
    Center of electronic charge [Ang]: [ -0.005659,  -0.000584,   0.133921]
  Total nuclear charge:                  18.000000
    Center of nuclear charge [Ang]:    [ -0.005556,   0.000000,   0.132185]
  Dipole moment [D]:                     0.158661
    Cartesian components [D]:          [  0.008939,   0.050459,  -0.150157]
  RMS size of the density [Ang]:         0.886268
    Cartesian components [Ang]:        [  0.400953,   0.545902,   0.571576]

Exciton analysis of the difference density matrix
  <r_h> [Ang]:                  [ -0.006825,  -0.000175,   0.161979]
  <r_e> [Ang]:                  [ -0.014979,  -0.008836,   0.344253]
  |<r_e - r_h>| [Ang]:            0.182661
  Hole size [Ang]:                1.293863
    Cartesian components [Ang]: [  0.887626,   0.646218,   0.684547]
  Electron size [Ang]:            1.524478
    Cartesian components [Ang]: [  0.530537,   1.015718,   1.005425]

  RASSI analysis for transiton from state 1 to 7 (S0-T1)
  ------------------------------------------------------
Energy: 4.3991 eV

NTOs
  Leading SVs:
     0.9323   0.0001   0.0000
  Sum of SVs (Omega):               0.932435
  Participation ratio (PR_NTO):     1.000270
  Entanglement entropy (S_HE):      0.095906
  Nr of entangled states (Z_HE):    1.068737
  Renormalized S_HE/Z_HE:  0.001931 /  1.001339

CT numbers (Mulliken)
  omega        =     0.9324
 2<alpha|beta> =     0.9324
  LOC          =     0.0020
  <Phe>        =     0.0217

CT numbers (Lowdin)
  omega        =     0.9324
 2<alpha|beta> =     0.9324
  LOC          =     0.0013
  <Phe>        =     0.0217

Exciton analysis of the transition density matrix
  Trans. dipole moment [D]:             0.004538
    Cartesian components [D]:         [ -0.004528,   0.000232,  -0.000192]
  Transition <r^2> [a.u.]:              0.088367
    Cartesian components [a.u.]:      [ -0.062739,   0.062227,   0.000512]
  <r_h> [Ang]:                        [ -0.000996,   0.000072,   0.024478]
  <r_e> [Ang]:                        [ -0.020367,  -0.015308,   0.463790]
  |<r_e - r_h>| [Ang]:                  0.440008
  Hole size [Ang]:                      1.188926
    Cartesian components [Ang]:       [  0.915893,   0.535423,   0.536662]
  Electron size [Ang]:                  1.575587
    Cartesian components [Ang]:       [  0.525683,   1.077787,   1.022011]
  RMS electron-hole separation [Ang]:   2.022309
    Cartesian components [Ang]:       [  1.056210,   1.203553,   1.235158]
  Covariance(r_h, r_e) [Ang^2]:        -0.000054
  Correlation coefficient:             -0.000029
  Center-of-mass size [Ang]:            0.986903
    Cartesian components [Ang]:       [  0.528016,   0.601727,   0.577149]

  RASSI analysis for state T2
  ---------------------------
Energy: 5.1045 eV

Using spin-traced density matrices ...

NOs
  Occupation of frontier NOs:
     0.0000   0.0971   0.9894   1.0000   1.9524   1.9625
  Number of electrons: 18.000000
  Number of unpaired electrons: n_u =  2.17294, n_u,nl =  2.04799
  NO participation ratio (PR_NO):  2.370370

NDOs
  Leading detachment eigenvalues:
    -0.9984  -0.1765  -0.0322
  Leading attachment eigenvalues:
     0.9794   0.2164   0.0097
  Number of detached / attached electrons: p_D =  1.2139, p_A =  1.2139
  Number of involved orbitals: PR_D =  1.432070, PR_A =  1.464619

Mulliken Population Analysis
    Atom      Charge (e)              h+              e-           Del q
------------------------------------------------------------------------
1 S1            0.224106        1.006556       -0.699275        0.307282
2 H2           -0.118869        0.103371       -0.263855       -0.160484
3 H3           -0.105238        0.104011       -0.250809       -0.146798
------------------------------------------------------------------------
    Sum:       -0.000000        1.213938       -1.213938       -0.000000

Lowdin Population Analysis
    Atom      Charge (e)              h+              e-           Del q
------------------------------------------------------------------------
1 S1            0.200449        1.041546       -0.689596        0.351951
2 H2           -0.107356        0.085831       -0.268913       -0.183082
3 H3           -0.093093        0.086561       -0.255430       -0.168869
------------------------------------------------------------------------
    Sum:       -0.000000        1.213938       -1.213938       -0.000000

Multipole moment analysis of the density matrix
  Molecular charge:                      -0.000000
  Number of electrons:                   18.000000
    Center of electronic charge [Ang]: [ -0.005960,   0.000607,   0.142479]
  Total nuclear charge:                  18.000000
    Center of nuclear charge [Ang]:    [ -0.005556,   0.000000,   0.132185]
  Dipole moment [D]:                     0.892299
    Cartesian components [D]:          [  0.034955,  -0.052498,  -0.890067]
  RMS size of the density [Ang]:         0.898071
    Cartesian components [Ang]:        [  0.405821,   0.544403,   0.587764]

Exciton analysis of the difference density matrix
  <r_h> [Ang]:                  [ -0.008675,  -0.000326,   0.205545]
  <r_e> [Ang]:                  [ -0.020767,   0.009227,   0.503011]
  |<r_e - r_h>| [Ang]:            0.297865
  Hole size [Ang]:                1.307068
    Cartesian components [Ang]: [  0.864736,   0.688271,   0.697812]
  Electron size [Ang]:            1.593555
    Cartesian components [Ang]: [  0.576181,   1.011986,   1.087803]

  RASSI analysis for transiton from state 1 to 8 (S0-T2)
  ------------------------------------------------------
Energy: 5.1045 eV

NTOs
  Leading SVs:
     0.9173   0.0007   0.0000
  Sum of SVs (Omega):               0.917946
  Participation ratio (PR_NTO):     1.001471
  Entanglement entropy (S_HE):      0.121378
  Nr of entangled states (Z_HE):    1.087773
  Renormalized S_HE/Z_HE:  0.008709 /  1.006055

CT numbers (Mulliken)
  omega        =     0.9179
 2<alpha|beta> =     0.9179
  LOC          =     0.0011
  <Phe>        =     0.0532

CT numbers (Lowdin)
  omega        =     0.9179
 2<alpha|beta> =     0.9179
  LOC          =     0.0007
  <Phe>        =     0.0532

Exciton analysis of the transition density matrix
  Trans. dipole moment [D]:             0.344764
    Cartesian components [D]:         [ -0.344004,   0.017645,  -0.014551]
  Transition <r^2> [a.u.]:              0.044714
    Cartesian components [a.u.]:      [ -0.031128,  -0.000939,   0.032085]
  <r_h> [Ang]:                        [ -0.001020,   0.000089,   0.025073]
  <r_e> [Ang]:                        [ -0.030153,   0.016601,   0.733835]
  |<r_e - r_h>| [Ang]:                  0.709553
  Hole size [Ang]:                      1.189549
    Cartesian components [Ang]:       [  0.915753,   0.536029,   0.537677]
  Electron size [Ang]:                  1.638655
    Cartesian components [Ang]:       [  0.589105,   1.064453,   1.097764]
  RMS electron-hole separation [Ang]:   2.145807
    Cartesian components [Ang]:       [  1.089166,   1.191915,   1.413345]
  Covariance(r_h, r_e) [Ang^2]:        -0.000401
  Correlation coefficient:             -0.000206
  Center-of-mass size [Ang]:            1.012351
    Cartesian components [Ang]:       [  0.544487,   0.595900,   0.610976]

  RASSI analysis for state T3
  ---------------------------
Energy: 6.5246 eV

Using spin-traced density matrices ...

NOs
  Occupation of frontier NOs:
     0.0000   0.2487   0.7966   1.2075   1.7528   1.9955
  Number of electrons: 18.000000
  Number of unpaired electrons: n_u =  2.09050, n_u,nl =  2.21211
  NO participation ratio (PR_NO):  3.154244

NDOs
  Leading detachment eigenvalues:
    -0.7553  -0.2125  -0.0209
  Leading attachment eigenvalues:
     0.7569   0.2280   0.0092
  Number of detached / attached electrons: p_D =  0.9982, p_A =  0.9982
  Number of involved orbitals: PR_D =  1.617291, PR_A =  1.594239

Mulliken Population Analysis
    Atom      Charge (e)              h+              e-           Del q
------------------------------------------------------------------------
1 S1           -0.056623        0.557262       -0.530709        0.026552
2 H2            0.046893        0.136705       -0.131427        0.005278
3 H3            0.009730        0.304263       -0.336094       -0.031831
------------------------------------------------------------------------
    Sum:       -0.000000        0.998230       -0.998230        0.000000

Lowdin Population Analysis
    Atom      Charge (e)              h+              e-           Del q
------------------------------------------------------------------------
1 S1           -0.046208        0.621963       -0.516669        0.105294
2 H2            0.053262        0.117913       -0.140376       -0.022464
3 H3           -0.007054        0.258354       -0.341184       -0.082830
------------------------------------------------------------------------
    Sum:       -0.000000        0.998230       -0.998230        0.000000

Multipole moment analysis of the density matrix
  Molecular charge:                      -0.000000
  Number of electrons:                   18.000000
    Center of electronic charge [Ang]: [ -0.005539,  -0.004217,   0.126683]
  Total nuclear charge:                  18.000000
    Center of nuclear charge [Ang]:    [ -0.005556,   0.000000,   0.132185]
  Dipole moment [D]:                     0.599267
    Cartesian components [D]:          [ -0.001419,   0.364551,   0.475627]
  RMS size of the density [Ang]:         0.885265
    Cartesian components [Ang]:        [  0.441425,   0.523627,   0.560939]

Exciton analysis of the difference density matrix
  <r_h> [Ang]:                  [ -0.028776,  -0.142706,   0.508102]
  <r_e> [Ang]:                  [ -0.035895,  -0.218071,   0.585014]
  |<r_e - r_h>| [Ang]:            0.107916
  Hole size [Ang]:                1.318389
    Cartesian components [Ang]: [  0.513947,   0.911185,   0.802340]
  Electron size [Ang]:            1.551001
    Cartesian components [Ang]: [  0.549851,   1.035718,   1.015164]

  RASSI analysis for transiton from state 1 to 9 (S0-T3)
  ------------------------------------------------------
Energy: 6.5246 eV

NTOs
  Leading SVs:
     0.7545   0.2130   0.0144
  Sum of SVs (Omega):               0.986485
  Participation ratio (PR_NTO):     1.582770
  Entanglement entropy (S_HE):      0.905947
  Nr of entangled states (Z_HE):    1.873775
  Renormalized S_HE/Z_HE:  0.898728 /  1.864421

CT numbers (Mulliken)
  omega        =     0.9865
 2<alpha|beta> =     0.9865
  LOC          =     0.4802
  <Phe>        =     0.2723

CT numbers (Lowdin)
  omega        =     0.9865
 2<alpha|beta> =     0.9865
  LOC          =     0.2837
  <Phe>        =     0.2723

Exciton analysis of the transition density matrix
  Trans. dipole moment [D]:             6.845014
    Cartesian components [D]:         [  0.355624,   1.418981,  -6.686871]
  Transition <r^2> [a.u.]:              6.019093
    Cartesian components [a.u.]:      [  0.099357,   2.968001,   5.235511]
  <r_h> [Ang]:                        [ -0.030387,  -0.158916,   0.526536]
  <r_e> [Ang]:                        [ -0.035726,  -0.212970,   0.587211]
  |<r_e - r_h>| [Ang]:                  0.081435
  Hole size [Ang]:                      1.319935
    Cartesian components [Ang]:       [  0.500958,   0.919021,   0.804157]
  Electron size [Ang]:                  1.587189
    Cartesian components [Ang]:       [  0.546742,   1.059847,   1.047362]
  RMS electron-hole separation [Ang]:   1.893752
    Cartesian components [Ang]:       [  0.740250,   1.227512,   1.237554]
  Covariance(r_h, r_e) [Ang^2]:         0.340866
  Correlation coefficient:              0.162706
  Center-of-mass size [Ang]:            1.111657
    Cartesian components [Ang]:       [  0.371426,   0.779726,   0.699895]

===== TheoDORE analysis of CT numbers (Mulliken)===========================================
| State            dE(eV)      f         Om        POSi      POSf      PR        CT        
| -----------------------------------------------------------------------------------------
| S0-S1           4.914668  0.000000  0.918713  1.002141  1.237438  1.285995  0.238593
| S0-S2           5.840912  0.000559  0.902887  1.002423  1.310815  1.377194  0.311945
| S0-S3           9.220895  0.014453  0.870738  1.157007  1.318604  1.563697  0.473457
| S0-S4           9.349878  0.010398  0.874960  1.210063  1.248839  1.546874  0.453747
| S0-S5          11.196197  0.967555  0.957039  1.211896  1.291272  1.602336  0.318651
| S0-T1           4.399099  0.000000  0.932435  1.002139  1.237100  1.285557  0.238254
| S0-T2           5.104525  0.000000  0.917946  1.002381  1.296648  1.360455  0.297795
| S0-T3           6.524640  0.000000  0.986485  1.316060  1.385595  1.831047  0.240657
===========================================================================================


===== TheoDORE analysis of CT numbers (Lowdin)=============================================
| State            dE(eV)      f         Om        POSi      POSf      PR        CT        
| -----------------------------------------------------------------------------------------
| S0-S1           4.914668  0.000000  0.918713  1.004774  1.248517  1.302898  0.250945
| S0-S2           5.840912  0.000559  0.902887  1.004992  1.281720  1.344941  0.284051
| S0-S3           9.220895  0.014453  0.870738  1.131820  1.302404  1.513332  0.430404
| S0-S4           9.349878  0.010398  0.874960  1.178630  1.240164  1.495022  0.411772
| S0-S5          11.196197  0.967555  0.957039  1.178731  1.276206  1.540888  0.292471
| S0-T1           4.399099  0.000000  0.932435  1.004773  1.244991  1.298371  0.247451
| S0-T2           5.104525  0.000000  0.917946  1.004968  1.271817  1.332622  0.274218
| S0-T3           6.524640  0.000000  0.986485  1.271401  1.370504  1.764249  0.314358
===========================================================================================

 Writing fragment Omega matrix to OmFrag.txt
--- Stop Module: wfa at Tue Mar 26 17:38:25 2024 /rc=_RC_ALL_IS_WELL_ ---

>>> COPY MOLCAS.3.JobIph JOB001

>>> COPY MOLCAS.rassi.h5.bak MOLCAS.rassi.h5

.##################.
.# Happy landing! #.
.##################.

    Timing: Wall=22.63 User=19.78 System=2.66
