   This run of MOLCAS is using the pymolcas driver

                             OPE
                             OPE          NMOL  CASOP  ENMOLC A   SO
                 OPE        NMOLC        AS  OP EN  MO LC     AS  OP
                OPENM       OL CA        SO  PE NM  OL CA     SOP EN
                OP EN      MO   LC       AS  OP ENMOL  CASO   PENMOL
                OP  EN     MO   LC       AS  OP EN     MO     LC ASO
               OP   E  NMOL  C  AS       OP  EN MO     LC     AS  OP
               OP  E   NMO   LC AS        OPEN  MO     LCASOP EN   M
               O  PEN   MO  LCA  SO
            OPE   NMO   L   CAS    OP
        OPENMOL  CASOP     ENMOL   CASOPE
     OPENMOLCA   SOPENMOLCASOPEN   MOLCASOPE
    OPENMOLCAS   OP           EN   MOL    CAS
    OPENMOLCAS       OP  ENM        O     LCA
    OPENMOLCAS    OPEN  MOLCASO     P  E  NMO
    OPENMOLCAS     OP               E  N  MOL
    OPENMOLCA   SO           PENM   O  L  CAS    OPEN    MO    LCAS
    OPENMOLCA   SOP           ENM   O  L  CAS   OP  EN  MOLC  AS   O
    OPENMOLCA   SOPE           NM      O  LCA   S      OP  EN MO
    OPENMOLC                AS         O  PEN   M      OL  CA  SOPE
    OPENMO        LCASOPE  NMOL        C  ASO   P      ENMOLC     AS
    OPE     NMO      LCA  SO     P     E   NM   OL  CA SO  PE N   MO
          OPENMOLCA            SOPE   NMO        LCAS  O    P  ENMO
     OPENMOLCASOPENMOLCASOPENMOLCASOPENMOLCA
        OPENMOLCASOPENMOLCASOPENMOLCASOPE
            OPENMOLCASOPENMOLCASOPENM
               OPENMOLCASOPENMOLCA        version: v23.06
                   OPENMOLCASO
                       OPE                tag:

 OpenMolcas is free software; you can redistribute it and/or modify it
 under the terms of the GNU Lesser General Public License version 2.1.
 OpenMolcas is distributed in the hope that it will be useful, but it
 is provided "as is" and without any express or implied warranties.
 For more details see the full text of the license in the file
 LICENSE or in <http://www.gnu.org/licenses/>.

                 Copyright (C) The OpenMolcas Authors
           For the author list and the recommended citation,
                   consult the file CONTRIBUTORS.md

           *************************************************
           * pymolcas version py2.24                       *
           *   build 0399f41f8acc7cc530e7639ac37f2484      *
           *   (after the EMIL interpreter by V. Veryazov) *
           *************************************************

configuration info
------------------
Host name: manganese.itc.univie.ac.at (Linux)
C Compiler ID: GNU
C flags: -std=gnu99
Fortran Compiler ID: Intel
Fortran flags: -fpp -i8 -heap-arrays
Definitions: _MOLCAS_;_I8_;_LINUX_
Parallel: OFF (GA=OFF)


   ---------------------------------------------------------------------------
  |
  |           Project: MOLCAS
  |    Submitted from: /public/manganese/scratch/tmp/sascha.925337/WORK/master
  |      Scratch area: /public/manganese/scratch/tmp/sascha.925337/WORK/master
  |   Save outputs to: WORKDIR
  |            Molcas: /usr/license/openmolcas/v23.06_wfa
  |
  | Scratch area is NOT empty
  |
  |        MOLCASMEM = 10000
  |    MOLCAS_DRIVER = /usr/license/openmolcas/v23.06_wfa/pymolcas
  |    MOLCAS_NPROCS = 1
  |    MOLCAS_SOURCE = /usr/license/openmolcas/v23.06_wfa
  | MOLCAS_STRUCTURE = 0
  |
   ---------------------------------------------------------------------------

++ ---------   Input file   ---------

&GATEWAY
COORD=MOLCAS.xyz
GROUP=NOSYM
BASIS=cc-pvdz
AMFI
angmom
0 0 0
BASLIB
/user/sascha/development/eci/sharc_main/examples/SHARC_MOLCAS/basisset

RICD
CDTHreshold=0.0001

&SEWARD

&RASSCF
SPIN=1
NACTEL=8 0 0
INACTIVE=5
RAS2=6
ITERATIONS=200,100
CIROOT=10 10 1
ORBLISTING=NOTHING
PRWF=0.1
THRS=0.000000010000 0.000100000000 0.000100000000

>>> COPY MOLCAS.JobIph MOLCAS.1.JobIph

&RASSCF
SPIN=2
NACTEL=7 0 0
INACTIVE=5
RAS2=6
ITERATIONS=200,100
CIROOT=4 4 1
ORBLISTING=NOTHING
PRWF=0.1
THRS=0.000000010000 0.000100000000 0.000100000000

>>> COPY MOLCAS.JobIph MOLCAS.2.JobIph

&RASSCF
SPIN=3
NACTEL=8 0 0
INACTIVE=5
RAS2=6
ITERATIONS=200,100
CIROOT=4 4 1
ORBLISTING=NOTHING
PRWF=0.1
THRS=0.000000010000 0.000100000000 0.000100000000

>>> COPY MOLCAS.JobIph MOLCAS.3.JobIph

&RASSCF
SPIN=4
NACTEL=7 0 0
INACTIVE=5
RAS2=6
ITERATIONS=200,100
CIROOT=4 4 1
ORBLISTING=NOTHING
PRWF=0.1
THRS=0.000000010000 0.000100000000 0.000100000000

>>> COPY MOLCAS.JobIph MOLCAS.4.JobIph

&RASSCF
SPIN=5
NACTEL=8 0 0
INACTIVE=5
RAS2=6
ITERATIONS=200,100
CIROOT=4 4 1
ORBLISTING=NOTHING
PRWF=0.1
THRS=0.000000010000 0.000100000000 0.000100000000

>>> COPY MOLCAS.JobIph MOLCAS.5.JobIph

&RASSCF
SPIN=6
NACTEL=7 0 0
INACTIVE=5
RAS2=6
ITERATIONS=200,100
CIROOT=4 4 1
ORBLISTING=NOTHING
PRWF=0.1
THRS=0.000000010000 0.000100000000 0.000100000000

>>> COPY MOLCAS.JobIph MOLCAS.6.JobIph

>>> COPY MOLCAS.1.JobIph JOB001

&RASSI
NROFJOBIPHS
1 6
1 2 3 4 5 6
MEIN

>>> COPY MOLCAS.rassi.h5 MOLCAS.rassi.1.h5

>>> COPY MOLCAS.2.JobIph JOB001

&RASSI
NROFJOBIPHS
1 2
1 2
MEIN

>>> COPY MOLCAS.rassi.h5 MOLCAS.rassi.2.h5

>>> COPY MOLCAS.3.JobIph JOB001

&RASSI
NROFJOBIPHS
1 2
1 2
MEIN

>>> COPY MOLCAS.rassi.h5 MOLCAS.rassi.3.h5

>>> COPY MOLCAS.4.JobIph JOB001

&RASSI
NROFJOBIPHS
1 2
1 2
MEIN

>>> COPY MOLCAS.rassi.h5 MOLCAS.rassi.4.h5

>>> COPY MOLCAS.5.JobIph JOB001

&RASSI
NROFJOBIPHS
1 2
1 2
MEIN

>>> COPY MOLCAS.rassi.h5 MOLCAS.rassi.5.h5

>>> COPY MOLCAS.6.JobIph JOB001

&RASSI
NROFJOBIPHS
1 2
1 2
MEIN

>>> COPY MOLCAS.rassi.h5 MOLCAS.rassi.6.h5

>>> COPY MOLCAS.1.JobIph JOB001

>>> COPY MOLCAS.2.JobIph JOB002

>>> COPY MOLCAS.3.JobIph JOB003

>>> COPY MOLCAS.4.JobIph JOB004

>>> COPY MOLCAS.5.JobIph JOB005

>>> COPY MOLCAS.6.JobIph JOB006

&RASSI
NROFJOBIPHS
6 6 2 2 2 2 2
1 2 3 4 5 6
1 2
1 2
1 2
1 2
1 2
MEIN
SPINORBIT
SOCOUPLING=0.0d0
EJOB

>>> COPY MOLCAS.rassi.h5 MOLCAS.rassi.h5.bak

>>> COPY MOLCAS.1.JobIph JOB001

>>> COPY MOLCAS.3.JobIph JOB002

&RASSI
NROFJOBIPHS
2 6 2
1 2 3 4 5 6
1 2
MEIN
TRD1

&WFA
H5file = MOLCAS.rassi.h5
DoCTnumbers
ATLISTS
2
1 2 *
3 *
PROP Om POSi POSf PR CT *
LOWDIN
NXO
EXCITON
WFALEVEL 4

>>> COPY MOLCAS.2.JobIph JOB001

>>> COPY MOLCAS.4.JobIph JOB002

&RASSI
NROFJOBIPHS
2 2 2
1 2
1 2
MEIN
TRD1

&WFA
H5file = MOLCAS.rassi.h5
DoCTnumbers
ATLISTS
2
1 2 *
3 *
PROP Om POSi POSf PR CT *
LOWDIN
NXO
EXCITON
WFALEVEL 4

>>> COPY MOLCAS.3.JobIph JOB001

>>> COPY MOLCAS.5.JobIph JOB002

&RASSI
NROFJOBIPHS
2 2 2
1 2
1 2
MEIN
TRD1

&WFA
H5file = MOLCAS.rassi.h5
DoCTnumbers
ATLISTS
2
1 2 *
3 *
PROP Om POSi POSf PR CT *
LOWDIN
NXO
EXCITON
WFALEVEL 4

>>> COPY MOLCAS.4.JobIph JOB001

>>> COPY MOLCAS.6.JobIph JOB002

&RASSI
NROFJOBIPHS
2 2 2
1 2
1 2
MEIN
TRD1

&WFA
H5file = MOLCAS.rassi.h5
DoCTnumbers
ATLISTS
2
1 2 *
3 *
PROP Om POSi POSf PR CT *
LOWDIN
NXO
EXCITON
WFALEVEL 4

>>> COPY MOLCAS.5.JobIph JOB001

>>> COPY MOLCAS.6.JobIph JOB001

>>> COPY MOLCAS.rassi.h5.bak MOLCAS.rassi.h5

-- ----------------------------------

--- Start Module: gateway at Tue Mar 26 13:42:07 2024 ---
 
()()()()()()()()()()()()()()()()()()()()()()()()()()()()()()()()()()()()()()()()()()()()()()()()()()

                                              &GATEWAY

                                   only a single process is used
                       available to each process: 10 GB of memory, 1 thread?
                                            pid: 256855
()()()()()()()()()()()()()()()()()()()()()()()()()()()()()()()()()()()()()()()()()()()()()()()()()()
 
 
 
 Basis Set     1 Label: S.CC-PVDZ
 Basis set is read from library:/user/sascha/development/eci/sharc_main/examples/SHARC_MOLCAS/basisset 
 
 
 Basis Set     2 Label: H.CC-PVDZ
 Basis set is read from library:/user/sascha/development/eci/sharc_main/examples/SHARC_MOLCAS/basisset 
 
++    Symmetry information:
      ---------------------
 
                    Character Table for C1 
 
                             E  
                    a        1  x, y, xy, Rz, z, xz, Ry, yz, Rx, I
--
 
 
++    Basis set information:
      ----------------------
 
 
      Basis set label: S.CC-PVDZ.........
 
      Electronic valence basis set:
      ------------------
      Associated Effective Charge  16.000000 au
      Associated Actual Charge     16.000000 au
      Nuclear Model: Point charge
 
      Shell  nPrim  nBasis  Cartesian Spherical Contaminant
         s      12       4        X                  
         p       8       3        X                  
         d       1       1                 X         
 
 
      Basis set label: H.CC-PVDZ.........
 
      Electronic valence basis set:
      ------------------
      Associated Effective Charge   1.000000 au
      Associated Actual Charge      1.000000 au
      Nuclear Model: Point charge
 
      Shell  nPrim  nBasis  Cartesian Spherical Contaminant
         s       4       2        X                  
         p       1       1        X                  
--
 
 
++    Molecular structure info:
      -------------------------
 
                    ************************************************ 
                    **** Cartesian Coordinates / Bohr, Angstrom **** 
                    ************************************************ 
 
     Center  Label                x              y              z                     x              y              z
        1      S1               0.000000       0.000000       0.001589              0.000000       0.000000       0.000841
        2      H2               0.000000       1.842103       2.235421              0.000000       0.974799       1.182934
        3      H3              -0.188973      -1.842103       2.235421             -0.100000      -0.974799       1.182934
 
                    *************************************** 
                    *    InterNuclear Distances / Bohr    * 
                    *************************************** 
 
               1 S1            2 H2            3 H3    
    1 S1       0.000000
    2 H2       2.895401        0.000000
    3 H3       2.901562        3.689050        0.000000
 
                    ******************************************* 
                    *    InterNuclear Distances / Angstrom    * 
                    ******************************************* 
 
               1 S1            2 H2            3 H3    
    1 S1       0.000000
    2 H2       1.532180        0.000000
    3 H3       1.535440        1.952161        0.000000
 
                    ************************************** 
                    *    Valence Bond Angles / Degree    * 
                    ************************************** 
                          Atom centers                 Phi
                      2 H2       1 S1       3 H3        79.04
--
 
 
            Nuclear Potential Energy             11.31134847 au
 
--- Stop Module: gateway at Tue Mar 26 13:42:07 2024 /rc=_RC_ALL_IS_WELL_ ---

--- Start Module: seward at Tue Mar 26 13:42:07 2024 ---
 
()()()()()()()()()()()()()()()()()()()()()()()()()()()()()()()()()()()()()()()()()()()()()()()()()()

                                              &SEWARD

                                   only a single process is used
                       available to each process: 10 GB of memory, 1 thread?
                                            pid: 256858
()()()()()()()()()()()()()()()()()()()()()()()()()()()()()()()()()()()()()()()()()()()()()()()()()()
 
               SEWARD will generate:
                  Multipole Moment integrals up to order  2
                  Kinetic Energy integrals
                  Nuclear Attraction integrals (point charge)
                  One-Electron Hamiltonian integrals
                  Velocity integrals
                  Orbital angular momentum around ( 0.0000  0.0000  0.0000 )
                  Velocity quadrupole around (-0.0056  0.0000  0.1341 )
                  Atomic mean-field integrals
                  RI decomposed two-electron repulsion integrals stored Cholesky style
                   - acCD auxiliary basis
                   - CD Threshold:   0.10E-03
 
                   Integrals are discarded if absolute value <: 0.10E-13
                   Integral cutoff threshold is set to       <: 0.10E-15
 
            Nuclear Potential Energy             11.31134847 au
 
 
      Basis set specifications :
      Symmetry species         a  
      Basis functions           28
 
 
      Input file to MOLDEN was generated!
 
--- Stop Module: seward at Tue Mar 26 13:42:08 2024 /rc=_RC_ALL_IS_WELL_ ---

*** symbolic link created: INPORB -> MOLCAS.GssOrb
--- Start Module: rasscf at Tue Mar 26 13:42:08 2024 ---
 
()()()()()()()()()()()()()()()()()()()()()()()()()()()()()()()()()()()()()()()()()()()()()()()()()()

                                              &RASSCF

                                   only a single process is used
                       available to each process: 10 GB of memory, 1 thread?
                                            pid: 256861
()()()()()()()()()()()()()()()()()()()()()()()()()()()()()()()()()()()()()()()()()()()()()()()()()()
 
 
      Header of the ONEINT file:
      --------------------------
      
      Integrals generated by Gateway/Seward, Tue Mar 26 13:42:08 2024
 
 
      OrdInt status: non-squared
 
 
      Cartesian coordinates in Angstrom:
      -----------------------------------------------------
      No.  Label        X            Y            Z        
      -----------------------------------------------------
       1   S1         0.00000000   0.00000000   0.00084100
       2   H2         0.00000000   0.97479900   1.18293400
       3   H3        -0.10000000  -0.97479900   1.18293400
      -----------------------------------------------------
      Nuclear repulsion energy =   11.31134847
 
++    Wave function specifications:
      -----------------------------
 
      Number of closed shell electrons          10
      Number of electrons in active shells       8
      Max number of holes in RAS1 space          0
      Max nr of electrons in RAS3 space          0
      Number of inactive orbitals                5
      Number of active orbitals                  6
      Number of secondary orbitals              17
      Spin quantum number                      0.0
      State symmetry                             1
--
 
++    Orbital specifications:
      -----------------------
 
      Symmetry species                           1
                                                 a
      Frozen orbitals                            0
      Inactive orbitals                          5
      Active orbitals                            6
      RAS1 orbitals                              0
      RAS2 orbitals                              6
      RAS3 orbitals                              0
      Secondary orbitals                        17
      Deleted orbitals                           0
      Number of basis functions                 28
--
 
++    CI expansion specifications:
      ----------------------------
 
      Number of CSFs                           105
      Number of determinants                   120
      Number of root(s) required                10
      Root chosen for geometry opt.             10
      CI roots used                              1     2     3     4     5     6     7     8     9    10
      weights                                0.100 0.100 0.100 0.100 0.100 0.100 0.100 0.100 0.100 0.100
      highest root included in the CI           10
      max. size of the explicit Hamiltonian    105
--
 
++    Optimization specifications:
      ----------------------------
 
      RASSCF algorithm: LK RI/DF
      Maximum number of macro iterations       200
      Maximum number of SX iterations          100
      Threshold for RASSCF energy            0.100E-07
      Threshold for max MO rotation          0.100E-03
      Threshold for max BLB element          0.100E-03
      Level shift parameter                  0.500E+00
      Make Quasi-Newton update
--
 
      Orbitals from runfile: guessorb orbitals
      The MO-coefficients are taken from guessorb on runfile
 
      Total molecular charge    0.00
 
      ************************************************************************************************************************
      *                                                                                                                      *
      *                                            Wave function control section                                             *
      *                                                                                                                      *
      ************************************************************************************************************************
 
 
                                         RASSCF iterations: Energy and convergence statistics
                                         ----------------------------------------------------
 
      Iter CI   SX   CI       RASSCF       Energy    max ROT     max BLB   max BLB  Level Ln srch  Step   QN   Walltime
          iter iter root      energy       change     param      element    value   shift minimum  type update hh:mm:ss
 Nr of preliminary CI iterations:   1
        1   1   79    0  -398.26969976    0.00E+00   0.14E+00*   7  18 1  0.14E+00*  0.00   0.00    SX    NO    0:00:00
        2   1   31    0  -398.34815254   -0.78E-01* -0.67E-01*  11  13 1 -0.31E-01*  0.00   0.00    SX    NO    0:00:00
        3   1   14    0  -398.35517623   -0.70E-02*  0.27E-01*  11  13 1 -0.12E-01*  0.00   0.00    SX    NO    0:00:00
        4   1   14    0  -398.35608083   -0.90E-03*  0.12E-01*  11  13 1 -0.50E-02*  0.00   0.00    SX    NO    0:00:00
        5   1   13    0  -398.35622120   -0.14E-03*  0.76E-02*  11  13 1 -0.20E-02*  0.00   1.67    LS   YES    0:00:00
        6   1   11    0  -398.35624821   -0.27E-04*  0.36E-03*   6  13 1 -0.29E-03*  0.00   1.02    QN   YES    0:00:00
        7   1    9    0  -398.35624859   -0.38E-06* -0.12E-03*   7  12 1  0.50E-04   0.00   1.13    QN   YES    0:00:00
        8   1    6    0  -398.35624861   -0.25E-07*  0.17E-04   10  18 1  0.10E-04   0.00   1.06    QN   YES    0:00:00
        9   1    5    0  -398.35624861   -0.51E-09   0.34E-05    6  13 1  0.23E-05   0.00   1.19    QN   YES    0:00:00
      Convergence after  9 iterations
       10   1    5    0  -398.35624861   -0.27E-10   0.34E-05    7  18 1  0.22E-06   0.00   1.19    QN   YES    0:00:00
 
      ************************************************************************************************************************
                                                      Wave function printout:
                       occupation of active orbitals, and spin coupling of open shells (u,d: Spin up or down)
      ************************************************************************************************************************
 
      Note: transformation to natural orbitals
      has been made, which may change the order of the CSFs.
 
      printout of CI-coefficients larger than  0.10 for root  1
      energy=    -398.690796
      conf/sym  111111     Coeff  Weight
             1  222200  -0.95825 0.91824
             9  22u20d   0.14513 0.02106
            15  2u22d0   0.15740 0.02477
            38  2ud2ud   0.10455 0.01093
 
      printout of CI-coefficients larger than  0.10 for root  2
      energy=    -398.510185
      conf/sym  111111     Coeff  Weight
             2  222ud0   0.97503 0.95069
            11  22uudd  -0.11959 0.01430
 
      printout of CI-coefficients larger than  0.10 for root  3
      energy=    -398.476147
      conf/sym  111111     Coeff  Weight
             4  222u0d  -0.96332 0.92799
             8  22ud20  -0.11729 0.01376
            18  2u2dud  -0.14778 0.02184
            51  202u2d  -0.10848 0.01177
 
      printout of CI-coefficients larger than  0.10 for root  4
      energy=    -398.351934
      conf/sym  111111     Coeff  Weight
             9  22u20d  -0.73037 0.53344
            15  2u22d0   0.60270 0.36325
            31  220220  -0.17681 0.03126
            52  202202   0.14656 0.02148
 
      printout of CI-coefficients larger than  0.10 for root  5
      energy=    -398.347194
      conf/sym  111111     Coeff  Weight
             7  22u2d0   0.69289 0.48009
            17  2u220d  -0.64705 0.41867
            32  2202ud   0.10661 0.01137
            37  2ud220  -0.17403 0.03029
            40  2ud202   0.18508 0.03426
 
      printout of CI-coefficients larger than  0.10 for root  6
      energy=    -398.279343
      conf/sym  111111     Coeff  Weight
             7  22u2d0  -0.67683 0.45810
            17  2u220d  -0.71543 0.51184
 
      printout of CI-coefficients larger than  0.10 for root  7
      energy=    -398.265825
      conf/sym  111111     Coeff  Weight
             3  222020  -0.75501 0.57004
             6  222002   0.52938 0.28024
             9  22u20d  -0.22671 0.05140
            12  22u02d  -0.11120 0.01236
            15  2u22d0  -0.13742 0.01888
            22  2u20d2  -0.17433 0.03039
            25  u2220d   0.10376 0.01077
 
      printout of CI-coefficients larger than  0.10 for root  8
      energy=    -398.216890
      conf/sym  111111     Coeff  Weight
             1  222200   0.18343 0.03365
             3  222020  -0.24283 0.05896
             6  222002   0.12598 0.01587
             9  22u20d   0.55575 0.30885
            15  2u22d0   0.69011 0.47626
            49  202220  -0.14952 0.02236
            67  2uu2dd   0.17230 0.02969
            82  20u22d   0.12971 0.01683
 
      printout of CI-coefficients larger than  0.10 for root  9
      energy=    -398.215561
      conf/sym  111111     Coeff  Weight
            11  22uudd  -0.49939 0.24939
            16  2u2d20   0.68698 0.47194
            21  2u2d02  -0.49281 0.24286
 
      printout of CI-coefficients larger than  0.10 for root 10
      energy=    -398.208610
      conf/sym  111111     Coeff  Weight
             8  22ud20  -0.63818 0.40728
            13  22ud02   0.53179 0.28280
            19  2u2udd   0.50431 0.25433
            51  202u2d   0.11056 0.01222
            69  2uudd2  -0.11118 0.01236
 
      Natural orbitals and occupation numbers for root  1
      sym 1:   1.997178   1.960374   1.963769   1.998361   0.048817   0.031501
 
      Natural orbitals and occupation numbers for root  2
      sym 1:   1.998796   1.985431   1.961014   1.000000   0.998770   0.055989
 
      Natural orbitals and occupation numbers for root  3
      sym 1:   1.998723   1.937366   1.971250   1.000000   0.100449   0.992211
 
      Natural orbitals and occupation numbers for root  4
      sym 1:   1.976905   1.575608   1.369489   1.981513   0.469961   0.626524
 
      Natural orbitals and occupation numbers for root  5
      sym 1:   1.992044   1.520620   1.393122   1.997203   0.609612   0.487400
 
      Natural orbitals and occupation numbers for root  6
      sym 1:   1.990802   1.468051   1.513715   1.998306   0.493917   0.535208
 
      Natural orbitals and occupation numbers for root  7
      sym 1:   1.990927   1.959079   1.921243   0.208629   1.220853   0.699270
 
      Natural orbitals and occupation numbers for root  8
      sym 1:   1.982830   1.400278   1.616383   1.845087   0.733435   0.421986
 
      Natural orbitals and occupation numbers for root  9
      sym 1:   1.998007   1.269236   1.736360   1.000000   1.223390   0.773007
 
      Natural orbitals and occupation numbers for root 10
      sym 1:   1.997688   1.734333   1.270033   1.000000   1.111028   0.886918
 
      ************************************************************************************************************************
      *                                                                                                                      *
      *                                                    Final results                                                     *
      *                                                                                                                      *
      ************************************************************************************************************************
 
 
++    Wave function specifications:
      -----------------------------
 
      Number of closed shell electrons          10
      Number of electrons in active shells       8
      Max number of holes in RAS1 space          0
      Max nr of electrons in RAS3 space          0
      Number of inactive orbitals                5
      Number of active orbitals                  6
      Number of secondary orbitals              17
      Spin quantum number                      0.0
      State symmetry                             1
--
 
++    Orbital specifications:
      -----------------------
 
      Symmetry species                           1
                                                 a
      Frozen orbitals                            0
      Inactive orbitals                          5
      Active orbitals                            6
      RAS1 orbitals                              0
      RAS2 orbitals                              6
      RAS3 orbitals                              0
      Secondary orbitals                        17
      Deleted orbitals                           0
      Number of basis functions                 28
--
 
++    CI expansion specifications:
      ----------------------------
 
      Number of CSFs                           105
      Number of determinants                   120
      Number of root(s) required                10
      CI roots used                              1     2     3     4     5     6     7     8     9    10
      weights                                0.100 0.100 0.100 0.100 0.100 0.100 0.100 0.100 0.100 0.100
      highest root included in the CI           10
      Root passed to geometry opt.              10
--
 
++    Final optimization conditions:
      ------------------------------
 
      Average CI energy                            -398.35624861
      RASSCF energy for state 10                   -398.20861014
      Super-CI energy                                -0.00000000
      RASSCF energy change                           -0.00000000
      Max change in MO coefficients               0.569E-05
      Max non-diagonal density matrix element     0.337E-05
      Maximum BLB matrix element                  0.221E-06
      (orbital pair   7,  18 in symmetry   1)
      Norm of electronic gradient            0.785E-01
--
 
 
      Final state energy(ies):
      ------------------------
 
::    RASSCF root number  1 Total energy:   -398.69079613
::    RASSCF root number  2 Total energy:   -398.51018540
::    RASSCF root number  3 Total energy:   -398.47614657
::    RASSCF root number  4 Total energy:   -398.35193447
::    RASSCF root number  5 Total energy:   -398.34719447
::    RASSCF root number  6 Total energy:   -398.27934348
::    RASSCF root number  7 Total energy:   -398.26582451
::    RASSCF root number  8 Total energy:   -398.21688958
::    RASSCF root number  9 Total energy:   -398.21556141
::    RASSCF root number 10 Total energy:   -398.20861014
      Von Neumann Entropy (Root   1) =  0.28248
 

      Mulliken population analysis for root number:  1
      -----------------------------------------------
 
 
++    Molecular charges:
      ------------------
 
      Mulliken charges per centre
      ---------------------------
 
                S1      H2      H3    
      Total   16.0832  0.9584  0.9584
 
      N-E     -0.0832  0.0416  0.0416
 
      Total electronic charge=   18.000000
 
      Total            charge=   -0.000000
--
 
 

      Expectation values of various properties for root number:  1
      -----------------------------------------------------------
 
 
++    Molecular properties:
      ---------------------
 
      Charge (e):
                      =   -0.0000
      Dipole Moment (Debye):
      Origin of the operator (Ang)=    0.0000    0.0000    0.0000
                   X= -3.5552E-02               Y=  3.2014E-03               Z=  8.4440E-01           Total=  8.4515E-01
      Quadrupole Moment (Debye*Ang):
      Origin of the operator (Ang)=   -0.0030    0.0000    0.0709
                  XX= -1.6616E+01              XY=  1.7134E-01              XZ= -1.5280E-01              YY= -1.3286E+01
                  YZ=  6.5786E-03              ZZ= -1.3011E+01
      In traceless form (Debye*Ang)
                  XX= -3.4678E+00              XY=  2.5700E-01              XZ= -2.2920E-01              YY=  1.5279E+00
                  YZ=  9.8679E-03              ZZ=  1.9399E+00
--
 
      Von Neumann Entropy (Root   2) =  1.18387
 

      Mulliken population analysis for root number:  2
      -----------------------------------------------
 
 
++    Molecular charges:
      ------------------
 
      Mulliken charges per centre
      ---------------------------
 
                S1      H2      H3    
      Total   15.9103  1.0410  1.0488
 
      N-E      0.0897 -0.0410 -0.0488
 
      Total electronic charge=   18.000000
 
      Total            charge=   -0.000000
--
 
 

      Expectation values of various properties for root number:  2
      -----------------------------------------------------------
 
 
++    Molecular properties:
      ---------------------
 
      Charge (e):
                      =   -0.0000
      Dipole Moment (Debye):
      Origin of the operator (Ang)=    0.0000    0.0000    0.0000
                   X=  5.2347E-03               Y=  4.0516E-02               Z= -7.4627E-02           Total=  8.5077E-02
      Quadrupole Moment (Debye*Ang):
      Origin of the operator (Ang)=   -0.0030    0.0000    0.0709
                  XX= -1.3998E+01              XY= -1.5553E-01              XZ=  1.0876E-01              YY= -1.6936E+01
                  YZ=  9.9210E-02              ZZ= -1.6437E+01
      In traceless form (Debye*Ang)
                  XX=  2.6881E+00              XY= -2.3329E-01              XZ=  1.6314E-01              YY= -1.7186E+00
                  YZ=  1.4882E-01              ZZ= -9.6948E-01
--
 
      Von Neumann Entropy (Root   3) =  1.28442
 

      Mulliken population analysis for root number:  3
      -----------------------------------------------
 
 
++    Molecular charges:
      ------------------
 
      Mulliken charges per centre
      ---------------------------
 
                S1      H2      H3    
      Total   15.8136  1.0984  1.0880
 
      N-E      0.1864 -0.0984 -0.0880
 
      Total electronic charge=   18.000000
 
      Total            charge=   -0.000000
--
 
 

      Expectation values of various properties for root number:  3
      -----------------------------------------------------------
 
 
++    Molecular properties:
      ---------------------
 
      Charge (e):
                      =   -0.0000
      Dipole Moment (Debye):
      Origin of the operator (Ang)=    0.0000    0.0000    0.0000
                   X=  4.3957E-02               Y= -4.6795E-02               Z= -1.0960E+00           Total=  1.0979E+00
      Quadrupole Moment (Debye*Ang):
      Origin of the operator (Ang)=   -0.0030    0.0000    0.0709
                  XX= -1.4360E+01              XY= -1.1716E-01              XZ=  1.6851E-01              YY= -1.6736E+01
                  YZ= -1.2643E-01              ZZ= -1.8484E+01
      In traceless form (Debye*Ang)
                  XX=  3.2497E+00              XY= -1.7574E-01              XZ=  2.5276E-01              YY= -3.1324E-01
                  YZ= -1.8964E-01              ZZ= -2.9364E+00
--
 
      Von Neumann Entropy (Root   4) =  1.69057
 

      Mulliken population analysis for root number:  4
      -----------------------------------------------
 
 
++    Molecular charges:
      ------------------
 
      Mulliken charges per centre
      ---------------------------
 
                S1      H2      H3    
      Total   15.9938  0.9751  1.0311
 
      N-E      0.0062  0.0249 -0.0311
 
      Total electronic charge=   18.000000
 
      Total            charge=   -0.000000
--
 
 

      Expectation values of various properties for root number:  4
      -----------------------------------------------------------
 
 
++    Molecular properties:
      ---------------------
 
      Charge (e):
                      =   -0.0000
      Dipole Moment (Debye):
      Origin of the operator (Ang)=    0.0000    0.0000    0.0000
                   X=  2.5429E-02               Y=  2.2596E-01               Z= -3.2717E-01           Total=  3.9843E-01
      Quadrupole Moment (Debye*Ang):
      Origin of the operator (Ang)=   -0.0030    0.0000    0.0709
                  XX= -1.6962E+01              XY=  4.5310E-02              XZ= -1.6040E-02              YY= -1.5555E+01
                  YZ=  6.3870E-01              ZZ= -1.5811E+01
      In traceless form (Debye*Ang)
                  XX= -1.2789E+00              XY=  6.7964E-02              XZ= -2.4060E-02              YY=  8.3168E-01
                  YZ=  9.5805E-01              ZZ=  4.4721E-01
--
 
      Von Neumann Entropy (Root   5) =  1.69053
 

      Mulliken population analysis for root number:  5
      -----------------------------------------------
 
 
++    Molecular charges:
      ------------------
 
      Mulliken charges per centre
      ---------------------------
 
                S1      H2      H3    
      Total   16.0315  1.0132  0.9554
 
      N-E     -0.0315 -0.0132  0.0446
 
      Total electronic charge=   18.000000
 
      Total            charge=   -0.000000
--
 
 

      Expectation values of various properties for root number:  5
      -----------------------------------------------------------
 
 
++    Molecular properties:
      ---------------------
 
      Charge (e):
                      =   -0.0000
      Dipole Moment (Debye):
      Origin of the operator (Ang)=    0.0000    0.0000    0.0000
                   X= -1.2495E-02               Y= -2.3161E-01               Z=  1.4549E-02           Total=  2.3240E-01
      Quadrupole Moment (Debye*Ang):
      Origin of the operator (Ang)=   -0.0030    0.0000    0.0709
                  XX= -1.6996E+01              XY=  1.1112E-01              XZ= -9.0111E-02              YY= -1.5372E+01
                  YZ= -6.4650E-01              ZZ= -1.5659E+01
      In traceless form (Debye*Ang)
                  XX= -1.4804E+00              XY=  1.6669E-01              XZ= -1.3517E-01              YY=  9.5538E-01
                  YZ= -9.6975E-01              ZZ=  5.2499E-01
--
 
      Von Neumann Entropy (Root   6) =  1.64669
 

      Mulliken population analysis for root number:  6
      -----------------------------------------------
 
 
++    Molecular charges:
      ------------------
 
      Mulliken charges per centre
      ---------------------------
 
                S1      H2      H3    
      Total   15.9881  1.0057  1.0062
 
      N-E      0.0119 -0.0057 -0.0062
 
      Total electronic charge=   18.000000
 
      Total            charge=   -0.000000
--
 
 

      Expectation values of various properties for root number:  6
      -----------------------------------------------------------
 
 
++    Molecular properties:
      ---------------------
 
      Charge (e):
                      =   -0.0000
      Dipole Moment (Debye):
      Origin of the operator (Ang)=    0.0000    0.0000    0.0000
                   X= -1.5499E-02               Y=  3.6156E-03               Z=  3.7081E-01           Total=  3.7115E-01
      Quadrupole Moment (Debye*Ang):
      Origin of the operator (Ang)=   -0.0030    0.0000    0.0709
                  XX= -1.6986E+01              XY=  9.2906E-02              XZ= -5.1207E-02              YY= -1.5164E+01
                  YZ=  2.1727E-02              ZZ= -1.5756E+01
      In traceless form (Debye*Ang)
                  XX= -1.5262E+00              XY=  1.3936E-01              XZ= -7.6811E-02              YY=  1.2073E+00
                  YZ=  3.2590E-02              ZZ=  3.1891E-01
--
 
      Von Neumann Entropy (Root   7) =  1.39636
 

      Mulliken population analysis for root number:  7
      -----------------------------------------------
 
 
++    Molecular charges:
      ------------------
 
      Mulliken charges per centre
      ---------------------------
 
                S1      H2      H3    
      Total   15.5872  1.2076  1.2052
 
      N-E      0.4128 -0.2076 -0.2052
 
      Total electronic charge=   18.000000
 
      Total            charge=   -0.000000
--
 
 

      Expectation values of various properties for root number:  7
      -----------------------------------------------------------
 
 
++    Molecular properties:
      ---------------------
 
      Charge (e):
                      =   -0.0000
      Dipole Moment (Debye):
      Origin of the operator (Ang)=    0.0000    0.0000    0.0000
                   X=  8.5338E-02               Y= -1.0457E-02               Z= -2.0302E+00           Total=  2.0321E+00
      Quadrupole Moment (Debye*Ang):
      Origin of the operator (Ang)=   -0.0030    0.0000    0.0709
                  XX= -1.2170E+01              XY= -4.1457E-01              XZ=  3.8907E-01              YY= -2.0245E+01
                  YZ= -3.6689E-02              ZZ= -2.1375E+01
      In traceless form (Debye*Ang)
                  XX=  8.6401E+00              XY= -6.2186E-01              XZ=  5.8361E-01              YY= -3.4724E+00
                  YZ= -5.5034E-02              ZZ= -5.1677E+00
--
 
      Von Neumann Entropy (Root   8) =  1.73237
 

      Mulliken population analysis for root number:  8
      -----------------------------------------------
 
 
++    Molecular charges:
      ------------------
 
      Mulliken charges per centre
      ---------------------------
 
                S1      H2      H3    
      Total   15.9753  1.0134  1.0112
 
      N-E      0.0247 -0.0134 -0.0112
 
      Total electronic charge=   18.000000
 
      Total            charge=   -0.000000
--
 
 

      Expectation values of various properties for root number:  8
      -----------------------------------------------------------
 
 
++    Molecular properties:
      ---------------------
 
      Charge (e):
                      =   -0.0000
      Dipole Moment (Debye):
      Origin of the operator (Ang)=    0.0000    0.0000    0.0000
                   X= -1.3062E-02               Y= -6.3377E-03               Z=  3.0112E-01           Total=  3.0147E-01
      Quadrupole Moment (Debye*Ang):
      Origin of the operator (Ang)=   -0.0030    0.0000    0.0709
                  XX= -1.6512E+01              XY=  5.5813E-02              XZ= -8.8943E-03              YY= -1.5448E+01
                  YZ= -2.5602E-02              ZZ= -1.6336E+01
      In traceless form (Debye*Ang)
                  XX= -6.1988E-01              XY=  8.3719E-02              XZ= -1.3341E-02              YY=  9.7577E-01
                  YZ= -3.8403E-02              ZZ= -3.5589E-01
--
 
      Von Neumann Entropy (Root   9) =  2.05865
 

      Mulliken population analysis for root number:  9
      -----------------------------------------------
 
 
++    Molecular charges:
      ------------------
 
      Mulliken charges per centre
      ---------------------------
 
                S1      H2      H3    
      Total   15.7219  1.1472  1.1309
 
      N-E      0.2781 -0.1472 -0.1309
 
      Total electronic charge=   18.000000
 
      Total            charge=   -0.000000
--
 
 

      Expectation values of various properties for root number:  9
      -----------------------------------------------------------
 
 
++    Molecular properties:
      ---------------------
 
      Charge (e):
                      =   -0.0000
      Dipole Moment (Debye):
      Origin of the operator (Ang)=    0.0000    0.0000    0.0000
                   X=  6.3514E-02               Y= -4.9230E-02               Z= -1.5613E+00           Total=  1.5634E+00
      Quadrupole Moment (Debye*Ang):
      Origin of the operator (Ang)=   -0.0030    0.0000    0.0709
                  XX= -1.4493E+01              XY= -2.0337E-01              XZ=  2.5846E-01              YY= -1.8580E+01
                  YZ= -1.7285E-01              ZZ= -2.0792E+01
      In traceless form (Debye*Ang)
                  XX=  5.1925E+00              XY= -3.0506E-01              XZ=  3.8770E-01              YY= -9.3674E-01
                  YZ= -2.5927E-01              ZZ= -4.2557E+00
--
 
      Von Neumann Entropy (Root  10) =  2.08736
 

      Mulliken population analysis for root number: 10
      -----------------------------------------------
 
 
++    Molecular charges:
      ------------------
 
      Mulliken charges per centre
      ---------------------------
 
                S1      H2      H3    
      Total   15.7194  1.1335  1.1471
 
      N-E      0.2806 -0.1335 -0.1471
 
      Total electronic charge=   18.000000
 
      Total            charge=   -0.000000
--
 
 

      Expectation values of various properties for root number: 10
      -----------------------------------------------------------
 
 
++    Molecular properties:
      ---------------------
 
      Charge (e):
                      =   -0.0000
      Dipole Moment (Debye):
      Origin of the operator (Ang)=    0.0000    0.0000    0.0000
                   X=  7.9312E-02               Y=  3.6547E-02               Z= -1.8308E+00           Total=  1.8328E+00
      Quadrupole Moment (Debye*Ang):
      Origin of the operator (Ang)=   -0.0030    0.0000    0.0709
                  XX= -1.4541E+01              XY= -2.6753E-01              XZ=  2.3287E-01              YY= -1.9625E+01
                  YZ=  1.3109E-01              ZZ= -1.9864E+01
      In traceless form (Debye*Ang)
                  XX=  5.2035E+00              XY= -4.0129E-01              XZ=  3.4931E-01              YY= -2.4225E+00
                  YZ=  1.9664E-01              ZZ= -2.7810E+00
--
 
 
      Input file to MOLDEN was generated!
 
 
      Input file to MOLDEN was generated!
 
 
      Input file to MOLDEN was generated!
 
 
      Input file to MOLDEN was generated!
 
 
      Input file to MOLDEN was generated!
 
 
      Input file to MOLDEN was generated!
 
 
      Input file to MOLDEN was generated!
 
 
      Input file to MOLDEN was generated!
 
 
      Input file to MOLDEN was generated!
 
 
      Input file to MOLDEN was generated!
 
 
      Input file to MOLDEN was generated!
 
      Average orbitals are written to the RASORB file
      Natural orbitals for root   1 are written to the RASORB.1 file
      Natural orbitals for root   2 are written to the RASORB.2 file
      Natural orbitals for root   3 are written to the RASORB.3 file
      Natural orbitals for root   4 are written to the RASORB.4 file
      Natural orbitals for root   5 are written to the RASORB.5 file
      Natural orbitals for root   6 are written to the RASORB.6 file
      Natural orbitals for root   7 are written to the RASORB.7 file
      Natural orbitals for root   8 are written to the RASORB.8 file
      Natural orbitals for root   9 are written to the RASORB.9 file
      Natural orbitals for root  10 are written to the RASORB.10 file
      Spin density orbitals for root   1 are written to the SPDORB.1 file
      Spin density orbitals for root   2 are written to the SPDORB.2 file
      Spin density orbitals for root   3 are written to the SPDORB.3 file
      Spin density orbitals for root   4 are written to the SPDORB.4 file
      Spin density orbitals for root   5 are written to the SPDORB.5 file
      Spin density orbitals for root   6 are written to the SPDORB.6 file
      Spin density orbitals for root   7 are written to the SPDORB.7 file
      Spin density orbitals for root   8 are written to the SPDORB.8 file
      Spin density orbitals for root   9 are written to the SPDORB.9 file
      Spin density orbitals for root  10 are written to the SPDORB.10 file
 
 ###############################################################################
 ###############################################################################
 ###                                                                         ###
 ###                                                                         ###
 ###    WARNING: RunFile label BirthCertificate                              ###
 ###    was used       51 times                                              ###
 ###                                                                         ###
 ###                                                                         ###
 ###############################################################################
 ###############################################################################
 ###############################################################################
 ###############################################################################
 ###                                                                         ###
 ###                                                                         ###
 ###    WARNING: RunFile label nBas                                          ###
 ###    was used       59 times                                              ###
 ###                                                                         ###
 ###                                                                         ###
 ###############################################################################
 ###############################################################################
--- Stop Module: rasscf at Tue Mar 26 13:42:12 2024 /rc=_RC_ALL_IS_WELL_ ---
--- Module rasscf spent 3 seconds ---

>>> COPY MOLCAS.JobIph MOLCAS.1.JobIph

*** symbolic link created: INPORB -> MOLCAS.RasOrb
--- Start Module: rasscf at Tue Mar 26 13:42:12 2024 ---
 
()()()()()()()()()()()()()()()()()()()()()()()()()()()()()()()()()()()()()()()()()()()()()()()()()()

                                              &RASSCF

                                   only a single process is used
                       available to each process: 10 GB of memory, 1 thread?
                                            pid: 256867
()()()()()()()()()()()()()()()()()()()()()()()()()()()()()()()()()()()()()()()()()()()()()()()()()()
 
 
      Header of the ONEINT file:
      --------------------------
      
      Integrals generated by Gateway/Seward, Tue Mar 26 13:42:08 2024
 
 
      OrdInt status: non-squared
 
 
      Cartesian coordinates in Angstrom:
      -----------------------------------------------------
      No.  Label        X            Y            Z        
      -----------------------------------------------------
       1   S1         0.00000000   0.00000000   0.00084100
       2   H2         0.00000000   0.97479900   1.18293400
       3   H3        -0.10000000  -0.97479900   1.18293400
      -----------------------------------------------------
      Nuclear repulsion energy =   11.31134847
 
++    Wave function specifications:
      -----------------------------
 
      Number of closed shell electrons          10
      Number of electrons in active shells       7
      Max number of holes in RAS1 space          0
      Max nr of electrons in RAS3 space          0
      Number of inactive orbitals                5
      Number of active orbitals                  6
      Number of secondary orbitals              17
      Spin quantum number                      0.5
      State symmetry                             1
--
 
++    Orbital specifications:
      -----------------------
 
      Symmetry species                           1
                                                 a
      Frozen orbitals                            0
      Inactive orbitals                          5
      Active orbitals                            6
      RAS1 orbitals                              0
      RAS2 orbitals                              6
      RAS3 orbitals                              0
      Secondary orbitals                        17
      Deleted orbitals                           0
      Number of basis functions                 28
--
 
++    CI expansion specifications:
      ----------------------------
 
      Number of CSFs                           210
      Number of determinants                   300
      Number of root(s) required                 4
      Root chosen for geometry opt.              4
      CI roots used                              1     2     3     4
      weights                                0.250 0.250 0.250 0.250
      highest root included in the CI            4
      max. size of the explicit Hamiltonian    200
--
 
++    Optimization specifications:
      ----------------------------
 
      RASSCF algorithm: LK RI/DF
      Maximum number of macro iterations       200
      Maximum number of SX iterations          100
      Threshold for RASSCF energy            0.100E-07
      Threshold for max MO rotation          0.100E-03
      Threshold for max BLB element          0.100E-03
      Level shift parameter                  0.500E+00
      Make Quasi-Newton update
--
 
      Orbitals from runfile: rasscf orbitals
      The MO-coefficients are taken from rasscf orbitals on runfile
 
      Total molecular charge    1.00
 
      ************************************************************************************************************************
      *                                                                                                                      *
      *                                            Wave function control section                                             *
      *                                                                                                                      *
      ************************************************************************************************************************
 
 
                                         RASSCF iterations: Energy and convergence statistics
                                         ----------------------------------------------------
 
      Iter CI   SX   CI       RASSCF       Energy    max ROT     max BLB   max BLB  Level Ln srch  Step   QN   Walltime
          iter iter root      energy       change     param      element    value   shift minimum  type update hh:mm:ss
 Nr of preliminary CI iterations:   3
        1   1   16    0  -398.19981096    0.00E+00   0.26E+00*   7  12 1 -0.80E-01*  0.00   0.00    SX    NO    0:00:00
        2   3    7    0  -398.22721929   -0.27E-01*  0.69E-01*   7  21 1 -0.12E-01*  0.00   0.00    SX    NO    0:00:00
        3   1    7    0  -398.22888039   -0.17E-02* -0.28E-01*   7  12 1 -0.27E-02*  0.00   0.00    SX    NO    0:00:00
        4   3    6    0  -398.22910791   -0.23E-03*  0.13E-01*   7  21 1 -0.15E-02*  0.00   0.00    SX    NO    0:00:00
        5   3    6    0  -398.22914403   -0.36E-04*  0.84E-02*  10  12 1  0.46E-03*  0.00   1.65    LS   YES    0:00:00
        6   3    6    0  -398.22915056   -0.65E-05* -0.15E-02*   7  21 1  0.37E-03*  0.00   1.02    QN   YES    0:00:00
        7   3    5    0  -398.22915141   -0.85E-06* -0.70E-03*   8  27 1  0.75E-04   0.00   1.46    LS   YES    0:00:00
        8   3    5    0  -398.22915150   -0.92E-07*  0.48E-03*   8  16 1  0.11E-03*  0.00   1.00    QN   YES    0:00:00
        9   3    5    0  -398.22915159   -0.92E-07*  0.22E-03*   8  13 1 -0.35E-04   0.00   1.46    LS   YES    0:00:00
       10   3    4    0  -398.22915160   -0.10E-07*  0.18E-03*   6  22 1 -0.37E-04   0.00   1.00    QN   YES    0:00:00
       11   3    4    0  -398.22915161   -0.11E-07*  0.17E-03*   9  18 1 -0.85E-05   0.00   1.53    QN   YES    0:00:00
       12   1    4    0  -398.22915161   -0.17E-08  -0.39E-04    6  22 1  0.37E-05   0.00   0.79    QN   YES    0:00:00
      Convergence after 12 iterations
       13   1    4    0  -398.22915161   -0.26E-09  -0.39E-04    6  22 1  0.18E-05   0.00   0.79    QN   YES    0:00:00
 
      ************************************************************************************************************************
                                                      Wave function printout:
                       occupation of active orbitals, and spin coupling of open shells (u,d: Spin up or down)
      ************************************************************************************************************************
 
      Note: transformation to natural orbitals
      has been made, which may change the order of the CSFs.
 
      printout of CI-coefficients larger than  0.10 for root  1
      energy=    -398.367451
      conf/sym  111111     Coeff  Weight
             1  222u00  -0.97361 0.94792
            56  202u20  -0.10764 0.01159
 
      printout of CI-coefficients larger than  0.10 for root  2
      energy=    -398.233505
      conf/sym  111111     Coeff  Weight
             4  22u200  -0.95869 0.91908
            13  2u2200  -0.17072 0.02915
           124  20u220  -0.10709 0.01147
 
      printout of CI-coefficients larger than  0.10 for root  3
      energy=    -398.220560
      conf/sym  111111     Coeff  Weight
             4  22u200  -0.16884 0.02851
            13  2u2200   0.94598 0.89487
            41  2ud20u  -0.11685 0.01365
            55  2022u0  -0.10611 0.01126
 
      printout of CI-coefficients larger than  0.10 for root  4
      energy=    -398.095091
      conf/sym  111111     Coeff  Weight
             2  2220u0   0.95477 0.91159
            11  22u0ud  -0.12373 0.01531
            16  2u2020  -0.12896 0.01663
 
      Natural orbitals and occupation numbers for root  1
      sym 1:   1.994895   1.949175   1.957992   1.000000   0.059884   0.038054
 
      Natural orbitals and occupation numbers for root  2
      sym 1:   1.979318   1.937846   1.006413   1.998396   0.047641   0.030385
 
      Natural orbitals and occupation numbers for root  3
      sym 1:   1.986199   1.013702   1.932547   1.981438   0.049562   0.036552
 
      Natural orbitals and occupation numbers for root  4
      sym 1:   1.977334   1.971833   1.950853   0.048895   0.992267   0.058818
 
      ************************************************************************************************************************
      *                                                                                                                      *
      *                                                    Final results                                                     *
      *                                                                                                                      *
      ************************************************************************************************************************
 
 
++    Wave function specifications:
      -----------------------------
 
      Number of closed shell electrons          10
      Number of electrons in active shells       7
      Max number of holes in RAS1 space          0
      Max nr of electrons in RAS3 space          0
      Number of inactive orbitals                5
      Number of active orbitals                  6
      Number of secondary orbitals              17
      Spin quantum number                      0.5
      State symmetry                             1
--
 
++    Orbital specifications:
      -----------------------
 
      Symmetry species                           1
                                                 a
      Frozen orbitals                            0
      Inactive orbitals                          5
      Active orbitals                            6
      RAS1 orbitals                              0
      RAS2 orbitals                              6
      RAS3 orbitals                              0
      Secondary orbitals                        17
      Deleted orbitals                           0
      Number of basis functions                 28
--
 
++    CI expansion specifications:
      ----------------------------
 
      Number of CSFs                           210
      Number of determinants                   300
      Number of root(s) required                 4
      CI roots used                              1     2     3     4
      weights                                0.250 0.250 0.250 0.250
      highest root included in the CI            4
      Root passed to geometry opt.               4
--
 
++    Final optimization conditions:
      ------------------------------
 
      Average CI energy                            -398.22915161
      RASSCF energy for state  4                   -398.09509063
      Super-CI energy                                -0.00000000
      RASSCF energy change                            0.00000000
      Max change in MO coefficients              -0.527E-04
      Max non-diagonal density matrix element    -0.390E-04
      Maximum BLB matrix element                  0.184E-05
      (orbital pair   6,  22 in symmetry   1)
      Norm of electronic gradient            0.801E-01
--
 
 
      Final state energy(ies):
      ------------------------
 
::    RASSCF root number  1 Total energy:   -398.36745113
::    RASSCF root number  2 Total energy:   -398.23350489
::    RASSCF root number  3 Total energy:   -398.22055979
::    RASSCF root number  4 Total energy:   -398.09509063
      Von Neumann Entropy (Root   1) =  0.83016
 

      Mulliken population analysis for root number:  1
      -----------------------------------------------
 
 
++    Molecular charges:
      ------------------
 
      Mulliken charges per centre
      ---------------------------
 
                S1      H2      H3    
      Total   15.4692  0.7654  0.7654
 
      N-E      0.5308  0.2346  0.2346
 
      Total electronic charge=   17.000000
 
      Total            charge=    1.000000
--
 
 

      Expectation values of various properties for root number:  1
      -----------------------------------------------------------
 
 
++    Molecular properties:
      ---------------------
 
      Charge (e):
                      =    1.0000
      Dipole Moment (Debye):
      Origin of the operator (Ang)=    0.0000    0.0000    0.0000
                   X= -1.0662E-01               Y=  1.3301E-03               Z=  2.5265E+00           Total=  2.5287E+00
      Center of Charge (Ang)
                     X=   -0.02219864               Y=    0.00027691               Z=    0.52599390
      Quadrupole Moment (Debye*Ang):
      Origin of the operator (Ang)=   -0.0030    0.0000    0.0709
                  XX= -1.1664E+01              XY=  1.0714E-01              XZ= -1.2019E-01              YY= -9.5852E+00
                  YZ=  1.0262E-03              ZZ= -8.8320E+00
      In traceless form (Debye*Ang)
                  XX= -2.4557E+00              XY=  1.6071E-01              XZ= -1.8029E-01              YY=  6.6291E-01
                  YZ=  1.5393E-03              ZZ=  1.7928E+00
--
 

      Mulliken spin population analysis for root number:  1
      ---------------------------------------------------
 
 
++    Molecular charges:
      ------------------
 
      Mulliken spin population per centre
      ---------------------------
 
                S1      H2      H3    
      Total    1.1016 -0.0505 -0.0511
 
      Total electronic spin=    1.000000
--
 
 
      Von Neumann Entropy (Root   2) =  0.77890
 

      Mulliken population analysis for root number:  2
      -----------------------------------------------
 
 
++    Molecular charges:
      ------------------
 
      Mulliken charges per centre
      ---------------------------
 
                S1      H2      H3    
      Total   15.6237  0.6899  0.6864
 
      N-E      0.3763  0.3101  0.3136
 
      Total electronic charge=   17.000000
 
      Total            charge=    1.000000
--
 
 

      Expectation values of various properties for root number:  2
      -----------------------------------------------------------
 
 
++    Molecular properties:
      ---------------------
 
      Charge (e):
                      =    1.0000
      Dipole Moment (Debye):
      Origin of the operator (Ang)=    0.0000    0.0000    0.0000
                   X= -1.0660E-01               Y= -9.7767E-03               Z=  2.5124E+00           Total=  2.5146E+00
      Center of Charge (Ang)
                     X=   -0.02219317               Y=   -0.00203545               Z=    0.52306051
      Quadrupole Moment (Debye*Ang):
      Origin of the operator (Ang)=   -0.0030    0.0000    0.0709
                  XX= -1.4179E+01              XY=  2.6746E-01              XZ= -3.3921E-01              YY= -9.0161E+00
                  YZ= -2.8763E-02              ZZ= -6.2220E+00
      In traceless form (Debye*Ang)
                  XX= -6.5596E+00              XY=  4.0119E-01              XZ= -5.0882E-01              YY=  1.1842E+00
                  YZ= -4.3144E-02              ZZ=  5.3754E+00
--
 

      Mulliken spin population analysis for root number:  2
      ---------------------------------------------------
 
 
++    Molecular charges:
      ------------------
 
      Mulliken spin population per centre
      ---------------------------
 
                S1      H2      H3    
      Total    0.6662  0.1612  0.1726
 
      Total electronic spin=    1.000000
--
 
 
      Von Neumann Entropy (Root   3) =  0.80570
 

      Mulliken population analysis for root number:  3
      -----------------------------------------------
 
 
++    Molecular charges:
      ------------------
 
      Mulliken charges per centre
      ---------------------------
 
                S1      H2      H3    
      Total   15.6195  0.6881  0.6924
 
      N-E      0.3805  0.3119  0.3076
 
      Total electronic charge=   17.000000
 
      Total            charge=    1.000000
--
 
 

      Expectation values of various properties for root number:  3
      -----------------------------------------------------------
 
 
++    Molecular properties:
      ---------------------
 
      Charge (e):
                      =    1.0000
      Dipole Moment (Debye):
      Origin of the operator (Ang)=    0.0000    0.0000    0.0000
                   X= -1.4475E-01               Y=  1.2163E-02               Z=  3.4410E+00           Total=  3.4440E+00
      Center of Charge (Ang)
                     X=   -0.03013639               Y=    0.00253220               Z=    0.71639210
      Quadrupole Moment (Debye*Ang):
      Origin of the operator (Ang)=   -0.0030    0.0000    0.0709
                  XX= -1.4259E+01              XY=  3.5702E-01              XZ= -2.5625E-01              YY= -7.2893E+00
                  YZ=  4.6763E-02              ZZ= -8.1734E+00
      In traceless form (Debye*Ang)
                  XX= -6.5278E+00              XY=  5.3553E-01              XZ= -3.8437E-01              YY=  3.9270E+00
                  YZ=  7.0145E-02              ZZ=  2.6008E+00
--
 

      Mulliken spin population analysis for root number:  3
      ---------------------------------------------------
 
 
++    Molecular charges:
      ------------------
 
      Mulliken spin population per centre
      ---------------------------
 
                S1      H2      H3    
      Total    0.4066  0.3014  0.2920
 
      Total electronic spin=    1.000000
--
 
 
      Von Neumann Entropy (Root   4) =  0.85365
 

      Mulliken population analysis for root number:  4
      -----------------------------------------------
 
 
++    Molecular charges:
      ------------------
 
      Mulliken charges per centre
      ---------------------------
 
                S1      H2      H3    
      Total   15.1970  0.8971  0.9059
 
      N-E      0.8030  0.1029  0.0941
 
      Total electronic charge=   17.000000
 
      Total            charge=    1.000000
--
 
 

      Expectation values of various properties for root number:  4
      -----------------------------------------------------------
 
 
++    Molecular properties:
      ---------------------
 
      Charge (e):
                      =    1.0000
      Dipole Moment (Debye):
      Origin of the operator (Ang)=    0.0000    0.0000    0.0000
                   X= -5.7686E-02               Y=  3.6792E-02               Z=  1.4124E+00           Total=  1.4141E+00
      Center of Charge (Ang)
                     X=   -0.01200980               Y=    0.00765993               Z=    0.29406390
      Quadrupole Moment (Debye*Ang):
      Origin of the operator (Ang)=   -0.0030    0.0000    0.0709
                  XX= -9.1612E+00              XY= -1.6805E-01              XZ=  1.0592E-01              YY= -1.2359E+01
                  YZ=  7.8737E-02              ZZ= -1.1557E+01
      In traceless form (Debye*Ang)
                  XX=  2.7968E+00              XY= -2.5207E-01              XZ=  1.5887E-01              YY= -2.0005E+00
                  YZ=  1.1811E-01              ZZ= -7.9635E-01
--
 

      Mulliken spin population analysis for root number:  4
      ---------------------------------------------------
 
 
++    Molecular charges:
      ------------------
 
      Mulliken spin population per centre
      ---------------------------
 
                S1      H2      H3    
      Total    0.2328  0.3719  0.3953
 
      Total electronic spin=    1.000000
--
 
 
 
      Input file to MOLDEN was generated!
 
 
      Input file to MOLDEN was generated!
 
 
      Input file to MOLDEN was generated!
 
 
      Input file to MOLDEN was generated!
 
 
      Input file to MOLDEN was generated!
 
      Average orbitals are written to the RASORB file
      Natural orbitals for root   1 are written to the RASORB.1 file
      Natural orbitals for root   2 are written to the RASORB.2 file
      Natural orbitals for root   3 are written to the RASORB.3 file
      Natural orbitals for root   4 are written to the RASORB.4 file
      Spin density orbitals for root   1 are written to the SPDORB.1 file
      Spin density orbitals for root   2 are written to the SPDORB.2 file
      Spin density orbitals for root   3 are written to the SPDORB.3 file
      Spin density orbitals for root   4 are written to the SPDORB.4 file
 
--- Stop Module: rasscf at Tue Mar 26 13:42:15 2024 /rc=_RC_ALL_IS_WELL_ ---
--- Module rasscf spent 2 seconds ---

>>> COPY MOLCAS.JobIph MOLCAS.2.JobIph

*** symbolic link created: INPORB -> MOLCAS.RasOrb
--- Start Module: rasscf at Tue Mar 26 13:42:15 2024 ---
 
()()()()()()()()()()()()()()()()()()()()()()()()()()()()()()()()()()()()()()()()()()()()()()()()()()

                                              &RASSCF

                                   only a single process is used
                       available to each process: 10 GB of memory, 1 thread?
                                            pid: 256897
()()()()()()()()()()()()()()()()()()()()()()()()()()()()()()()()()()()()()()()()()()()()()()()()()()
 
 
      Header of the ONEINT file:
      --------------------------
      
      Integrals generated by Gateway/Seward, Tue Mar 26 13:42:08 2024
 
 
      OrdInt status: non-squared
 
 
      Cartesian coordinates in Angstrom:
      -----------------------------------------------------
      No.  Label        X            Y            Z        
      -----------------------------------------------------
       1   S1         0.00000000   0.00000000   0.00084100
       2   H2         0.00000000   0.97479900   1.18293400
       3   H3        -0.10000000  -0.97479900   1.18293400
      -----------------------------------------------------
      Nuclear repulsion energy =   11.31134847
 
++    Wave function specifications:
      -----------------------------
 
      Number of closed shell electrons          10
      Number of electrons in active shells       8
      Max number of holes in RAS1 space          0
      Max nr of electrons in RAS3 space          0
      Number of inactive orbitals                5
      Number of active orbitals                  6
      Number of secondary orbitals              17
      Spin quantum number                      1.0
      State symmetry                             1
--
 
++    Orbital specifications:
      -----------------------
 
      Symmetry species                           1
                                                 a
      Frozen orbitals                            0
      Inactive orbitals                          5
      Active orbitals                            6
      RAS1 orbitals                              0
      RAS2 orbitals                              6
      RAS3 orbitals                              0
      Secondary orbitals                        17
      Deleted orbitals                           0
      Number of basis functions                 28
--
 
++    CI expansion specifications:
      ----------------------------
 
      Number of CSFs                           105
      Number of determinants                   120
      Number of root(s) required                 4
      Root chosen for geometry opt.              4
      CI roots used                              1     2     3     4
      weights                                0.250 0.250 0.250 0.250
      highest root included in the CI            4
      max. size of the explicit Hamiltonian    105
--
 
++    Optimization specifications:
      ----------------------------
 
      RASSCF algorithm: LK RI/DF
      Maximum number of macro iterations       200
      Maximum number of SX iterations          100
      Threshold for RASSCF energy            0.100E-07
      Threshold for max MO rotation          0.100E-03
      Threshold for max BLB element          0.100E-03
      Level shift parameter                  0.500E+00
      Make Quasi-Newton update
--
 
      Orbitals from runfile: rasscf orbitals
      The MO-coefficients are taken from rasscf orbitals on runfile
 
      Total molecular charge    0.00
 
      ************************************************************************************************************************
      *                                                                                                                      *
      *                                            Wave function control section                                             *
      *                                                                                                                      *
      ************************************************************************************************************************
 
 
                                         RASSCF iterations: Energy and convergence statistics
                                         ----------------------------------------------------
 
      Iter CI   SX   CI       RASSCF       Energy    max ROT     max BLB   max BLB  Level Ln srch  Step   QN   Walltime
          iter iter root      energy       change     param      element    value   shift minimum  type update hh:mm:ss
 Nr of preliminary CI iterations:   1
        1   1   34    0  -398.42153262    0.00E+00   0.30E+00*   8  14 1 -0.91E-01*  0.15   0.00    SX    NO    0:00:00
        2   1    9    0  -398.48029831   -0.59E-01*  0.73E-01*  11  12 1 -0.17E-01*  0.00   0.00    SX    NO    0:00:00
        3   1    7    0  -398.48276400   -0.25E-02*  0.16E-01*  11  12 1 -0.39E-02*  0.00   0.00    SX    NO    0:00:00
        4   1    7    0  -398.48291787   -0.15E-03*  0.46E-02*   7  21 1  0.12E-02*  0.00   0.00    SX    NO    0:00:00
        5   1    6    0  -398.48293086   -0.13E-04*  0.20E-02*   7  21 1  0.41E-03*  0.00   1.43    LS   YES    0:00:00
        6   1    5    0  -398.48293217   -0.13E-05*  0.83E-04    9  17 1  0.12E-03*  0.00   1.01    QN   YES    0:00:00
        7   1    4    0  -398.48293221   -0.40E-07*  0.31E-04    9  17 1  0.37E-04   0.00   1.39    QN   YES    0:00:00
        8   1    3    0  -398.48293221   -0.29E-08   0.21E-05    5  15 1  0.26E-05   0.00   1.03    QN   YES    0:00:00
      Convergence after  8 iterations
        9   1    3    0  -398.48293221   -0.84E-10   0.21E-05    6  22 1 -0.51E-06   0.00   1.03    QN   YES    0:00:00
 
      ************************************************************************************************************************
                                                      Wave function printout:
                       occupation of active orbitals, and spin coupling of open shells (u,d: Spin up or down)
      ************************************************************************************************************************
 
      Note: transformation to natural orbitals
      has been made, which may change the order of the CSFs.
 
      printout of CI-coefficients larger than  0.10 for root  1
      energy=    -398.529132
      conf/sym  111111     Coeff  Weight
             1  222uu0  -0.97712 0.95477
            20  2u2u02   0.10040 0.01008
 
      printout of CI-coefficients larger than  0.10 for root  2
      energy=    -398.503208
      conf/sym  111111     Coeff  Weight
             2  222u0u  -0.96671 0.93453
             5  22uu20   0.13172 0.01735
            19  2u2uud   0.12581 0.01583
            41  202u2u  -0.10372 0.01076
 
      printout of CI-coefficients larger than  0.10 for root  3
      energy=    -398.451020
      conf/sym  111111     Coeff  Weight
             4  22u2u0  -0.20776 0.04317
             6  22u20u  -0.53354 0.28466
            13  2u22u0  -0.79058 0.62501
            15  2u220u  -0.11585 0.01342
 
      printout of CI-coefficients larger than  0.10 for root  4
      energy=    -398.448368
      conf/sym  111111     Coeff  Weight
             4  22u2u0  -0.82006 0.67250
             6  22u20u   0.12870 0.01656
            13  2u22u0   0.19980 0.03992
            15  2u220u  -0.48696 0.23713
 
      Natural orbitals and occupation numbers for root  1
      sym 1:   1.997194   1.976187   1.965364   1.000000   0.998862   0.062392
 
      Natural orbitals and occupation numbers for root  2
      sym 1:   1.998657   1.952372   1.962503   1.000000   0.097103   0.989366
 
      Natural orbitals and occupation numbers for root  3
      sym 1:   1.995492   1.207530   1.752843   1.998887   0.796586   0.248663
 
      Natural orbitals and occupation numbers for root  4
      sym 1:   1.993819   1.787891   1.174382   1.997977   0.828763   0.217168
 
      ************************************************************************************************************************
      *                                                                                                                      *
      *                                                    Final results                                                     *
      *                                                                                                                      *
      ************************************************************************************************************************
 
 
++    Wave function specifications:
      -----------------------------
 
      Number of closed shell electrons          10
      Number of electrons in active shells       8
      Max number of holes in RAS1 space          0
      Max nr of electrons in RAS3 space          0
      Number of inactive orbitals                5
      Number of active orbitals                  6
      Number of secondary orbitals              17
      Spin quantum number                      1.0
      State symmetry                             1
--
 
++    Orbital specifications:
      -----------------------
 
      Symmetry species                           1
                                                 a
      Frozen orbitals                            0
      Inactive orbitals                          5
      Active orbitals                            6
      RAS1 orbitals                              0
      RAS2 orbitals                              6
      RAS3 orbitals                              0
      Secondary orbitals                        17
      Deleted orbitals                           0
      Number of basis functions                 28
--
 
++    CI expansion specifications:
      ----------------------------
 
      Number of CSFs                           105
      Number of determinants                   120
      Number of root(s) required                 4
      CI roots used                              1     2     3     4
      weights                                0.250 0.250 0.250 0.250
      highest root included in the CI            4
      Root passed to geometry opt.               4
--
 
++    Final optimization conditions:
      ------------------------------
 
      Average CI energy                            -398.48293221
      RASSCF energy for state  4                   -398.44836830
      Super-CI energy                                -0.00000000
      RASSCF energy change                           -0.00000000
      Max change in MO coefficients               0.534E-05
      Max non-diagonal density matrix element     0.207E-05
      Maximum BLB matrix element                 -0.511E-06
      (orbital pair   6,  22 in symmetry   1)
      Norm of electronic gradient            0.606E-01
--
 
 
      Final state energy(ies):
      ------------------------
 
::    RASSCF root number  1 Total energy:   -398.52913226
::    RASSCF root number  2 Total energy:   -398.50320833
::    RASSCF root number  3 Total energy:   -398.45101995
::    RASSCF root number  4 Total energy:   -398.44836830
      Von Neumann Entropy (Root   1) =  1.20017
 

      Mulliken population analysis for root number:  1
      -----------------------------------------------
 
 
++    Molecular charges:
      ------------------
 
      Mulliken charges per centre
      ---------------------------
 
                S1      H2      H3    
      Total   15.8784  1.0550  1.0666
 
      N-E      0.1216 -0.0550 -0.0666
 
      Total electronic charge=   18.000000
 
      Total            charge=   -0.000000
--
 
 

      Expectation values of various properties for root number:  1
      -----------------------------------------------------------
 
 
++    Molecular properties:
      ---------------------
 
      Charge (e):
                      =   -0.0000
      Dipole Moment (Debye):
      Origin of the operator (Ang)=    0.0000    0.0000    0.0000
                   X=  8.9395E-03               Y=  5.0459E-02               Z= -1.5016E-01           Total=  1.5866E-01
      Quadrupole Moment (Debye*Ang):
      Origin of the operator (Ang)=   -0.0030    0.0000    0.0709
                  XX= -1.3854E+01              XY= -1.4854E-01              XZ=  1.1161E-01              YY= -1.6637E+01
                  YZ=  1.2198E-01              ZZ= -1.6332E+01
      In traceless form (Debye*Ang)
                  XX=  2.6308E+00              XY= -2.2281E-01              XZ=  1.6742E-01              YY= -1.5438E+00
                  YZ=  1.8297E-01              ZZ= -1.0870E+00
--
 

      Mulliken spin population analysis for root number:  1
      ---------------------------------------------------
 
 
++    Molecular charges:
      ------------------
 
      Mulliken spin population per centre
      ---------------------------
 
                S1      H2      H3    
      Total    1.3459  0.3121  0.3420
 
      Total electronic spin=    2.000000
--
 
 
      Von Neumann Entropy (Root   2) =  1.27591
 

      Mulliken population analysis for root number:  2
      -----------------------------------------------
 
 
++    Molecular charges:
      ------------------
 
      Mulliken charges per centre
      ---------------------------
 
                S1      H2      H3    
      Total   15.7759  1.1189  1.1052
 
      N-E      0.2241 -0.1189 -0.1052
 
      Total electronic charge=   18.000000
 
      Total            charge=   -0.000000
--
 
 

      Expectation values of various properties for root number:  2
      -----------------------------------------------------------
 
 
[...]
                       available to each process: 10 GB of memory, 1 thread?
                                            pid: 257111
()()()()()()()()()()()()()()()()()()()()()()()()()()()()()()()()()()()()()()()()()()()()()()()()()()
 
 Starting wavefunction analysis ...
Parsing input file ...
ATLISTS parsed:
[ 1 2 ], [ 3 ], 
Opening Molcas HDF5 file MOLCAS.rassi.h5

Did not find any MO-coefficients
 Number of atoms: 3
Shifting the quadrupole operators to the origin ...
Initialization finished.

HDF5 data group WFA created.
  ----------------------------------------------------------------------------
                 RASSI (Transition) Density Matrix Analysis
  ----------------------------------------------------------------------------


  RASSI analysis for reference state Q1
  -------------------------------------
Energy: 0 eV

NOs
  Occupation of frontier NOs:
     0.2346   0.8107   1.0000   1.1938   1.7679   1.9930
  Number of electrons: 17.000000
  Number of unpaired electrons: n_u =  3.09065, n_u,nl =  3.19609
  NO participation ratio (PR_NO):  3.953237

Mulliken Population Analysis
    Atom      Charge (e)
------------------------
1 S1            0.737923
2 H2            0.171755
3 H3            0.090322
------------------------
    Sum:        1.000000

Lowdin Population Analysis
    Atom      Charge (e)
------------------------
1 S1            0.788985
2 H2            0.148946
3 H3            0.062069
------------------------
    Sum:        1.000000

Multipole moment analysis of the density matrix
  Molecular charge:                      1.000000
  Number of electrons:                   17.000000
    Center of electronic charge [Ang]: [ -0.005332,  -0.006406,   0.119127]
  Total nuclear charge:                  18.000000
    Center of nuclear charge [Ang]:    [ -0.005882,   0.000000,   0.139960]
  Dipole moment [D]:                     1.780328
    Cartesian components [D]:          [ -0.044956,   0.523050,   1.701165]
  RMS size of the density [Ang]:         0.820010
    Cartesian components [Ang]:        [  0.376909,   0.495211,   0.533969]


  RASSI analysis for state Q2
  ---------------------------
Energy: 0.073855 eV

Using spin-traced density matrices ...

NOs
  Occupation of frontier NOs:
     0.1982   0.8469   1.0000   1.1562   1.8077   1.9909
  Number of electrons: 17.000000
  Number of unpaired electrons: n_u =  3.09028, n_u,nl =  3.15418
  NO participation ratio (PR_NO):  3.811344

NDOs
  Leading detachment eigenvalues:
    -0.6179  -0.3977  -0.0000
  Leading attachment eigenvalues:
     0.6140   0.3968   0.0048
  Number of detached / attached electrons: p_D =  1.0155, p_A =  1.0155
  Number of involved orbitals: PR_D =  1.910164, PR_A =  1.929833

Mulliken Population Analysis
    Atom      Charge (e)              h+              e-           Del q
------------------------------------------------------------------------
1 S1            0.756283        0.611835       -0.593475        0.018360
2 H2            0.081669        0.158056       -0.248142       -0.090086
3 H3            0.162047        0.245650       -0.173924        0.071726
------------------------------------------------------------------------
    Sum:        1.000000        1.015541       -1.015541        0.000000

Lowdin Population Analysis
    Atom      Charge (e)              h+              e-           Del q
------------------------------------------------------------------------
1 S1            0.833055        0.653562       -0.609492        0.044070
2 H2            0.040149        0.133902       -0.242698       -0.108796
3 H3            0.126795        0.228077       -0.163351        0.064726
------------------------------------------------------------------------
    Sum:        1.000000        1.015541       -1.015541        0.000000

Multipole moment analysis of the density matrix
  Molecular charge:                      1.000000
  Number of electrons:                   17.000000
    Center of electronic charge [Ang]: [ -0.004996,   0.006362,   0.126675]
  Total nuclear charge:                  18.000000
    Center of nuclear charge [Ang]:    [ -0.005882,   0.000000,   0.139960]
  Dipole moment [D]:                     1.204932
    Cartesian components [D]:          [ -0.072360,  -0.519510,   1.084774]
  RMS size of the density [Ang]:         0.818967
    Cartesian components [Ang]:        [  0.375524,   0.505803,   0.523309]

Exciton analysis of the difference density matrix
  <r_h> [Ang]:                  [ -0.022410,  -0.123215,   0.381240]
  <r_e> [Ang]:                  [ -0.016792,   0.090519,   0.507605]
  |<r_e - r_h>| [Ang]:            0.248358
  Hole size [Ang]:                1.386313
    Cartesian components [Ang]: [  0.507286,   0.840804,   0.978556]
  Electron size [Ang]:            1.348750
    Cartesian components [Ang]: [  0.489949,   0.944156,   0.829244]

  RASSI analysis for transiton from state 1 to 2 (Q1-Q2)
  ------------------------------------------------------
Energy: 0.073855 eV

NTOs (alpha)
  Leading SVs:
     0.1658   0.1212   0.0001
  Sum of SVs (Omega):               0.287132
  Participation ratio (PR_NTO):     1.954107
  Entanglement entropy (S_HE):      0.800203
  Nr of entangled states (Z_HE):    1.741346
  Renormalized S_HE/Z_HE:  0.986670 /  1.981605
NTOs (beta)
  Leading SVs:
     0.4628   0.0463   0.0042
  Sum of SVs (Omega):               0.516555
  Participation ratio (PR_NTO):     1.233496
  Entanglement entropy (S_HE):      0.780024
  Nr of entangled states (Z_HE):    1.717160
  Renormalized S_HE/Z_HE:  0.557044 /  1.471252

CT numbers (Mulliken)
  omega        =     0.8037 (alpha:     0.2871, beta:     0.5166)
 2<alpha|beta> =    -0.0295
  LOC          =     0.2123 (alpha:     0.0985, beta:     0.1137)
  <Phe>        =     0.7153 (alpha:     0.9844, beta:     0.5657)

CT numbers (Lowdin)
  omega        =     0.8037 (alpha:     0.2871, beta:     0.5166)
 2<alpha|beta> =    -0.0295
  LOC          =     0.0955 (alpha:     0.0578, beta:     0.0377)
  <Phe>        =     0.7153 (alpha:     0.9844, beta:     0.5657)

Exciton analysis of the transition density matrix
Total:
  Trans. dipole moment [D]:             1.005437
    Cartesian components [D]:         [ -0.057694,  -0.990477,   0.162883]
  Transition <r^2> [a.u.]:              0.225120
    Cartesian components [a.u.]:      [  0.011571,  -0.166919,   0.150608]
  <r_h> [Ang]:                        [ -0.014943,   0.035178,   0.396780]
  <r_e> [Ang]:                        [ -0.022962,   0.005456,   0.550310]
  |<r_e - r_h>| [Ang]:                  0.156586
  Hole size [Ang]:                      1.401574
    Cartesian components [Ang]:       [  0.504016,   0.847296,   0.996226]
  Electron size [Ang]:                  1.362679
    Cartesian components [Ang]:       [  0.487007,   0.973885,   0.819309]
  RMS electron-hole separation [Ang]:   1.806966
    Cartesian components [Ang]:       [  0.700017,   1.126481,   1.227250]
  Covariance(r_h, r_e) [Ang^2]:         0.290349
  Correlation coefficient:              0.152023
  Center-of-mass size [Ang]:            1.049047
    Cartesian components [Ang]:       [  0.350876,   0.718444,   0.679135]

Alpha spin:
  Trans. dipole moment [D]:             2.104754
    Cartesian components [D]:         [ -0.103592,  -2.099946,  -0.097400]
  Transition <r^2> [a.u.]:              0.073561
    Cartesian components [a.u.]:      [ -0.005913,   0.035602,   0.064100]
  <r_h> [Ang]:                        [ -0.031706,   0.019301,   0.773845]
  <r_e> [Ang]:                        [ -0.027696,   0.029493,   0.691381]
  |<r_e - r_h>| [Ang]:                  0.083188
  Hole size [Ang]:                      1.548410
    Cartesian components [Ang]:       [  0.528302,   1.066743,   0.990218]
  Electron size [Ang]:                  1.543109
    Cartesian components [Ang]:       [  0.513721,   1.053406,   1.003798]
  RMS electron-hole separation [Ang]:   2.026544
    Cartesian components [Ang]:       [  0.735803,   1.260393,   1.406016]
  Covariance(r_h, r_e) [Ang^2]:         0.339399
  Correlation coefficient:              0.142046
  Center-of-mass size [Ang]:            1.168071
    Cartesian components [Ang]:       [  0.368997,   0.852455,   0.708202]

Beta spin:
  Trans. dipole moment [D]:             1.140515
    Cartesian components [D]:         [  0.045898,   1.109469,   0.260283]
  Transition <r^2> [a.u.]:              0.220917
    Cartesian components [a.u.]:      [  0.017484,  -0.202522,   0.086508]
  <r_h> [Ang]:                        [ -0.005625,   0.044003,   0.187186]
  <r_e> [Ang]:                        [ -0.020330,  -0.007905,   0.471895]
  |<r_e - r_h>| [Ang]:                  0.289776
  Hole size [Ang]:                      1.264994
    Cartesian components [Ang]:       [  0.489748,   0.695856,   0.936024]
  Electron size [Ang]:                  1.244079
    Cartesian components [Ang]:       [  0.471483,   0.926467,   0.683444]
  RMS electron-hole separation [Ang]:   1.672492
    Cartesian components [Ang]:       [  0.679310,   1.044649,   1.115562]
  Covariance(r_h, r_e) [Ang^2]:         0.217341
  Correlation coefficient:              0.138104
  Center-of-mass size [Ang]:            0.946391
    Cartesian components [Ang]:       [  0.340240,   0.631767,   0.617061]

  RASSI analysis for state H1
  ---------------------------
Energy: 6.6537 eV

Using spin-traced density matrices ...

NOs
  Occupation of frontier NOs:
     1.0000   1.0000   1.0000   1.0000   1.0000   2.0000
  Number of electrons: 17.000000
  Number of unpaired electrons: n_u =  5.00000, n_u,nl =  5.00000
  NO participation ratio (PR_NO):  5.000000

NDOs
  Leading detachment eigenvalues:
    -0.7742  -0.1990  -0.0358
  Leading attachment eigenvalues:
     0.7707   0.1931   0.0426
  Number of detached / attached electrons: p_D =  1.0342, p_A =  1.0342
  Number of involved orbitals: PR_D =  1.669518, PR_A =  1.688268

Mulliken Population Analysis
    Atom      Charge (e)              h+              e-           Del q
------------------------------------------------------------------------
1 S1            1.070051        0.775635       -0.443507        0.332129
2 H2           -0.035415        0.198427       -0.405597       -0.207171
3 H3           -0.034636        0.060135       -0.185093       -0.124958
------------------------------------------------------------------------
    Sum:        1.000000        1.034197       -1.034197        0.000000

Lowdin Population Analysis
    Atom      Charge (e)              h+              e-           Del q
------------------------------------------------------------------------
1 S1            1.085485        0.781078       -0.484578        0.296500
2 H2           -0.043242        0.186796       -0.378984       -0.192188
3 H3           -0.042242        0.066323       -0.170635       -0.104312
------------------------------------------------------------------------
    Sum:        1.000000        1.034197       -1.034197        0.000000

Multipole moment analysis of the density matrix
  Molecular charge:                      1.000000
  Number of electrons:                   17.000000
    Center of electronic charge [Ang]: [ -0.006103,   0.000048,   0.145188]
  Total nuclear charge:                  18.000000
    Center of nuclear charge [Ang]:    [ -0.005882,   0.000000,   0.139960]
  Dipole moment [D]:                     0.427264
    Cartesian components [D]:          [  0.018027,  -0.003879,  -0.426866]
  RMS size of the density [Ang]:         0.844361
    Cartesian components [Ang]:        [  0.373937,   0.515271,   0.554628]

Exciton analysis of the difference density matrix
  <r_h> [Ang]:                  [ -0.005420,   0.096679,   0.246212]
  <r_e> [Ang]:                  [ -0.018099,   0.202755,   0.674606]
  |<r_e - r_h>| [Ang]:            0.441514
  Hole size [Ang]:                1.313186
    Cartesian components [Ang]: [  0.550777,   0.783607,   0.898366]
  Electron size [Ang]:            1.441116
    Cartesian components [Ang]: [  0.516248,   0.956458,   0.946304]

  RASSI analysis for transiton from state 1 to 3 (Q1-H1)
  ------------------------------------------------------
Energy: 6.6537 eV

NTOs
  Leading SVs:
     0.3084   0.0782   0.0046
  Sum of SVs (Omega):               0.393342
  Participation ratio (PR_NTO):     1.528057
  Entanglement entropy (S_HE):      0.867172
  Nr of entangled states (Z_HE):    1.824084
  Renormalized S_HE/Z_HE:  0.858483 /  1.813131

CT numbers (Mulliken)
  omega        =     0.3933
 2<alpha|beta> =     0.3933
  LOC          =     0.2253
  <Phe>        =     0.2504

CT numbers (Lowdin)
  omega        =     0.3933
 2<alpha|beta> =     0.3933
  LOC          =     0.1112
  <Phe>        =     0.2504

Exciton analysis of the transition density matrix
  Trans. dipole moment [D]:             4.216362
    Cartesian components [D]:         [  0.130594,  -0.856689,  -4.126347]
  Transition <r^2> [a.u.]:              3.196347
    Cartesian components [a.u.]:      [ -0.015803,   1.742302,   2.679696]
  <r_h> [Ang]:                        [ -0.006506,   0.130665,   0.313100]
  <r_e> [Ang]:                        [ -0.018131,   0.232813,   0.711818]
  |<r_e - r_h>| [Ang]:                  0.411759
  Hole size [Ang]:                      1.266883
    Cartesian components [Ang]:       [  0.482037,   0.763486,   0.888662]
  Electron size [Ang]:                  1.503463
    Cartesian components [Ang]:       [  0.519062,   0.998673,   0.996809]
  RMS electron-hole separation [Ang]:   1.871680
    Cartesian components [Ang]:       [  0.708439,   1.114488,   1.326354]
  Covariance(r_h, r_e) [Ang^2]:         0.265876
  Correlation coefficient:              0.139589
  Center-of-mass size [Ang]:            1.048468
    Cartesian components [Ang]:       [  0.354196,   0.694418,   0.701152]

  RASSI analysis for state H2
  ---------------------------
Energy: 16.592 eV

Using spin-traced density matrices ...

NOs
  Occupation of frontier NOs:
     1.0000   1.0000   1.0000   1.0000   1.0000   2.0000
  Number of electrons: 17.000000
  Number of unpaired electrons: n_u =  5.00000, n_u,nl =  5.00000
  NO participation ratio (PR_NO):  5.000000

NDOs
  Leading detachment eigenvalues:
    -0.9907  -0.2821  -0.0207
  Leading attachment eigenvalues:
     0.8420   0.2859   0.1525
  Number of detached / attached electrons: p_D =  1.3071, p_A =  1.3071
  Number of involved orbitals: PR_D =  1.609488, PR_A =  2.097504

Mulliken Population Analysis
    Atom      Charge (e)              h+              e-           Del q
------------------------------------------------------------------------
1 S1            1.171212        1.180765       -0.747476        0.433289
2 H2           -0.163630        0.043657       -0.379042       -0.335385
3 H3           -0.007583        0.082640       -0.180545       -0.097905
------------------------------------------------------------------------
    Sum:        1.000000        1.307063       -1.307063        0.000000

Lowdin Population Analysis
    Atom      Charge (e)              h+              e-           Del q
------------------------------------------------------------------------
1 S1            1.094925        1.066118       -0.760178        0.305940
2 H2           -0.127684        0.097086       -0.373716       -0.276630
3 H3            0.032759        0.143858       -0.173169       -0.029310
------------------------------------------------------------------------
    Sum:        1.000000        1.307063       -1.307063        0.000000

Multipole moment analysis of the density matrix
  Molecular charge:                      1.000000
  Number of electrons:                   17.000000
    Center of electronic charge [Ang]: [ -0.005704,   0.003606,   0.140056]
  Total nuclear charge:                  18.000000
    Center of nuclear charge [Ang]:    [ -0.005882,   0.000000,   0.139960]
  Dipole moment [D]:                     0.294932
    Cartesian components [D]:          [ -0.014603,  -0.294466,  -0.007801]
  RMS size of the density [Ang]:         0.859476
    Cartesian components [Ang]:        [  0.369887,   0.526232,   0.570055]

Exciton analysis of the difference density matrix
  <r_h> [Ang]:                  [ -0.009813,  -0.038793,   0.185789]
  <r_e> [Ang]:                  [ -0.014647,   0.091425,   0.458000]
  |<r_e - r_h>| [Ang]:            0.301793
  Hole size [Ang]:                1.096454
    Cartesian components [Ang]: [  0.555770,   0.643300,   0.692456]
  Electron size [Ang]:            1.397253
    Cartesian components [Ang]: [  0.490514,   0.904840,   0.944974]

  RASSI analysis for transiton from state 1 to 4 (Q1-H2)
  ------------------------------------------------------
Energy: 16.592 eV

NTOs
  Leading SVs:
     0.2839   0.0010   0.0005
  Sum of SVs (Omega):               0.285810
  Participation ratio (PR_NTO):     1.013380
  Entanglement entropy (S_HE):      0.535827
  Nr of entangled states (Z_HE):    1.449773
  Renormalized S_HE/Z_HE:  0.067894 /  1.048186

CT numbers (Mulliken)
  omega        =     0.2858
 2<alpha|beta> =     0.2858
  LOC          =     0.0267
  <Phe>        =     0.0540

CT numbers (Lowdin)
  omega        =     0.2858
 2<alpha|beta> =     0.2858
  LOC          =     0.0178
  <Phe>        =     0.0540

Exciton analysis of the transition density matrix
  Trans. dipole moment [D]:             0.153852
    Cartesian components [D]:         [ -0.006818,  -0.006289,   0.153572]
  Transition <r^2> [a.u.]:              1.338907
    Cartesian components [a.u.]:      [  0.088205,  -0.756920,  -1.100893]
  <r_h> [Ang]:                        [ -0.007351,   0.020927,   0.200006]
  <r_e> [Ang]:                        [ -0.006947,   0.440517,   0.699284]
  |<r_e - r_h>| [Ang]:                  0.652176
  Hole size [Ang]:                      0.999676
    Cartesian components [Ang]:       [  0.525429,   0.598036,   0.604672]
  Electron size [Ang]:                  1.460577
    Cartesian components [Ang]:       [  0.522073,   0.921222,   1.006020]
  RMS electron-hole separation [Ang]:   1.876408
    Cartesian components [Ang]:       [  0.737387,   1.170753,   1.267480]
  Covariance(r_h, r_e) [Ang^2]:         0.018532
  Correlation coefficient:              0.012692
  Center-of-mass size [Ang]:            0.890183
    Cartesian components [Ang]:       [  0.371999,   0.551812,   0.591224]

===== TheoDORE analysis of CT numbers (Mulliken)===========================================
| State            dE(eV)      f         Om        POSi      POSf      PR        CT        
| -----------------------------------------------------------------------------------------
| Q1-Q2           0.073855  0.000283  0.803687  1.196360  1.244632  1.523687  0.212573
| Q1-H1           6.653681  0.000000  0.393342  1.081989  1.193985  1.316099  0.138998
| Q1-H2          16.592447  0.000000  0.285810  1.010774  1.061040  1.075624  0.062684
===========================================================================================


===== TheoDORE analysis of CT numbers (Lowdin)=============================================
| State            dE(eV)      f         Om        POSi      POSf      PR        CT        
| -----------------------------------------------------------------------------------------
| Q1-Q2           0.073855  0.000283  0.803687  1.169800  1.225874  1.465205  0.217946
| Q1-H1           6.653681  0.000000  0.393342  1.071056  1.177698  1.282503  0.151775
| Q1-H2          16.592447  0.000000  0.285810  1.069244  1.055550  1.132600  0.111469
===========================================================================================

 Writing fragment Omega matrix to OmFrag.txt
--- Stop Module: wfa at Tue Mar 26 13:42:48 2024 /rc=_RC_ALL_IS_WELL_ ---

>>> COPY MOLCAS.5.JobIph JOB001

>>> COPY MOLCAS.6.JobIph JOB001

>>> COPY MOLCAS.rassi.h5.bak MOLCAS.rassi.h5

.##################.
.# Happy landing! #.
.##################.

    Timing: Wall=40.91 User=35.95 System=4.51
