   This run of MOLCAS is using the pymolcas driver

                             OPE
                             OPE          NMOL  CASOP  ENMOLC A   SO
                 OPE        NMOLC        AS  OP EN  MO LC     AS  OP
                OPENM       OL CA        SO  PE NM  OL CA     SOP EN
                OP EN      MO   LC       AS  OP ENMOL  CASO   PENMOL
                OP  EN     MO   LC       AS  OP EN     MO     LC ASO
               OP   E  NMOL  C  AS       OP  EN MO     LC     AS  OP
               OP  E   NMO   LC AS        OPEN  MO     LCASOP EN   M
               O  PEN   MO  LCA  SO
            OPE   NMO   L   CAS    OP
        OPENMOL  CASOP     ENMOL   CASOPE
     OPENMOLCA   SOPENMOLCASOPEN   MOLCASOPE
    OPENMOLCAS   OP           EN   MOL    CAS
    OPENMOLCAS       OP  ENM        O     LCA
    OPENMOLCAS    OPEN  MOLCASO     P  E  NMO
    OPENMOLCAS     OP               E  N  MOL
    OPENMOLCA   SO           PENM   O  L  CAS    OPEN    MO    LCAS
    OPENMOLCA   SOP           ENM   O  L  CAS   OP  EN  MOLC  AS   O
    OPENMOLCA   SOPE           NM      O  LCA   S      OP  EN MO
    OPENMOLC                AS         O  PEN   M      OL  CA  SOPE
    OPENMO        LCASOPE  NMOL        C  ASO   P      ENMOLC     AS
    OPE     NMO      LCA  SO     P     E   NM   OL  CA SO  PE N   MO
          OPENMOLCA            SOPE   NMO        LCAS  O    P  ENMO
     OPENMOLCASOPENMOLCASOPENMOLCASOPENMOLCA
        OPENMOLCASOPENMOLCASOPENMOLCASOPE
            OPENMOLCASOPENMOLCASOPENM
               OPENMOLCASOPENMOLCA        version: v23.06
                   OPENMOLCASO
                       OPE                tag:

 OpenMolcas is free software; you can redistribute it and/or modify it
 under the terms of the GNU Lesser General Public License version 2.1.
 OpenMolcas is distributed in the hope that it will be useful, but it
 is provided "as is" and without any express or implied warranties.
 For more details see the full text of the license in the file
 LICENSE or in <http://www.gnu.org/licenses/>.

                 Copyright (C) The OpenMolcas Authors
           For the author list and the recommended citation,
                   consult the file CONTRIBUTORS.md

           *************************************************
           * pymolcas version py2.24                       *
           *   build 0399f41f8acc7cc530e7639ac37f2484      *
           *   (after the EMIL interpreter by V. Veryazov) *
           *************************************************

configuration info
------------------
Host name: manganese.itc.univie.ac.at (Linux)
C Compiler ID: GNU
C flags: -std=gnu99
Fortran Compiler ID: Intel
Fortran flags: -fpp -i8 -heap-arrays
Definitions: _MOLCAS_;_I8_;_LINUX_
Parallel: OFF (GA=OFF)


   ---------------------------------------------------------------------------
  |
  |           Project: MOLCAS
  |    Submitted from: /public/manganese/scratch/tmp/sascha.925337/WORK/master
  |      Scratch area: /public/manganese/scratch/tmp/sascha.925337/WORK/master
  |   Save outputs to: WORKDIR
  |            Molcas: /usr/license/openmolcas/v23.06_wfa
  |
  | Scratch area is NOT empty
  |
  |        MOLCASMEM = 10000
  |    MOLCAS_DRIVER = /usr/license/openmolcas/v23.06_wfa/pymolcas
  |    MOLCAS_NPROCS = 1
  |    MOLCAS_SOURCE = /usr/license/openmolcas/v23.06_wfa
  | MOLCAS_STRUCTURE = 0
  |
   ---------------------------------------------------------------------------

++ ---------   Input file   ---------

&GATEWAY
COORD=MOLCAS.xyz
GROUP=NOSYM
BASIS=cc-pvdz
AMFI
angmom
0 0 0
BASLIB
/user/sascha/development/eci/sharc_main/examples/SHARC_MOLCAS/basisset

RICD
CDTHreshold=0.0001

&SEWARD

&RASSCF
SPIN=1
NACTEL=8 0 0
INACTIVE=5
RAS2=6
ITERATIONS=200,100
CIROOT=10 10 1
ORBLISTING=NOTHING
PRWF=0.1
THRS=0.000000010000 0.000100000000 0.000100000000

>>> COPY MOLCAS.JobIph MOLCAS.1.JobIph

&RASSCF
SPIN=2
NACTEL=7 0 0
INACTIVE=5
RAS2=6
ITERATIONS=200,100
CIROOT=5 5 1
ORBLISTING=NOTHING
PRWF=0.1
THRS=0.000000010000 0.000100000000 0.000100000000

>>> COPY MOLCAS.JobIph MOLCAS.2.JobIph

&RASSCF
SPIN=3
NACTEL=8 0 0
INACTIVE=5
RAS2=6
ITERATIONS=200,100
CIROOT=4 4 1
ORBLISTING=NOTHING
PRWF=0.1
THRS=0.000000010000 0.000100000000 0.000100000000

>>> COPY MOLCAS.JobIph MOLCAS.3.JobIph

>>> COPY MOLCAS.1.JobIph JOB001

&RASSI
NROFJOBIPHS
1 6
1 2 3 4 5 6
MEIN

>>> COPY MOLCAS.rassi.h5 MOLCAS.rassi.1.h5

>>> COPY MOLCAS.2.JobIph JOB001

&RASSI
NROFJOBIPHS
1 5
1 2 3 4 5
MEIN

>>> COPY MOLCAS.rassi.h5 MOLCAS.rassi.2.h5

>>> COPY MOLCAS.3.JobIph JOB001

&RASSI
NROFJOBIPHS
1 3
1 2 3
MEIN

>>> COPY MOLCAS.rassi.h5 MOLCAS.rassi.3.h5

>>> COPY MOLCAS.1.JobIph JOB001

>>> COPY MOLCAS.2.JobIph JOB002

>>> COPY MOLCAS.3.JobIph JOB003

&RASSI
NROFJOBIPHS
3 6 5 3
1 2 3 4 5 6
1 2 3 4 5
1 2 3
MEIN
SPINORBIT
SOCOUPLING=0.0d0
EJOB

>>> COPY MOLCAS.rassi.h5 MOLCAS.rassi.h5.bak

>>> COPY MOLCAS.1.JobIph JOB001

>>> COPY MOLCAS.3.JobIph JOB002

&RASSI
NROFJOBIPHS
2 6 3
1 2 3 4 5 6
1 2 3
MEIN
TRD1

&WFA
H5file = MOLCAS.rassi.h5
DoCTnumbers
ATLISTS
2
1 2 *
3 *
PROP Om POSi POSf PR CT *
LOWDIN
NXO
EXCITON
WFALEVEL 4

>>> COPY MOLCAS.2.JobIph JOB001

&RASSI
NROFJOBIPHS
1 5
1 2 3 4 5
MEIN
TRD1

&WFA
H5file = MOLCAS.rassi.h5
DoCTnumbers
ATLISTS
2
1 2 *
3 *
PROP Om POSi POSf PR CT *
LOWDIN
NXO
EXCITON
WFALEVEL 4

>>> COPY MOLCAS.rassi.h5.bak MOLCAS.rassi.h5

-- ----------------------------------

--- Start Module: gateway at Tue Mar 26 17:55:16 2024 ---
 
()()()()()()()()()()()()()()()()()()()()()()()()()()()()()()()()()()()()()()()()()()()()()()()()()()

                                              &GATEWAY

                                   only a single process is used
                       available to each process: 10 GB of memory, 1 thread?
                                            pid: 425399
()()()()()()()()()()()()()()()()()()()()()()()()()()()()()()()()()()()()()()()()()()()()()()()()()()
 
 
 
 Basis Set     1 Label: S.CC-PVDZ
 Basis set is read from library:/user/sascha/development/eci/sharc_main/examples/SHARC_MOLCAS/basisset 
 
 
 Basis Set     2 Label: H.CC-PVDZ
 Basis set is read from library:/user/sascha/development/eci/sharc_main/examples/SHARC_MOLCAS/basisset 
 
++    Symmetry information:
      ---------------------
 
                    Character Table for C1 
 
                             E  
                    a        1  x, y, xy, Rz, z, xz, Ry, yz, Rx, I
--
 
 
++    Basis set information:
      ----------------------
 
 
      Basis set label: S.CC-PVDZ.........
 
      Electronic valence basis set:
      ------------------
      Associated Effective Charge  16.000000 au
      Associated Actual Charge     16.000000 au
      Nuclear Model: Point charge
 
      Shell  nPrim  nBasis  Cartesian Spherical Contaminant
         s      12       4        X                  
         p       8       3        X                  
         d       1       1                 X         
 
 
      Basis set label: H.CC-PVDZ.........
 
      Electronic valence basis set:
      ------------------
      Associated Effective Charge   1.000000 au
      Associated Actual Charge      1.000000 au
      Nuclear Model: Point charge
 
      Shell  nPrim  nBasis  Cartesian Spherical Contaminant
         s       4       2        X                  
         p       1       1        X                  
--
 
 
++    Molecular structure info:
      -------------------------
 
                    ************************************************ 
                    **** Cartesian Coordinates / Bohr, Angstrom **** 
                    ************************************************ 
 
     Center  Label                x              y              z                     x              y              z
        1      S1               0.000000       0.000000       0.001589              0.000000       0.000000       0.000841
        2      H2               0.000000       1.842103       2.235421              0.000000       0.974799       1.182934
        3      H3              -0.188973      -1.842103       2.235421             -0.100000      -0.974799       1.182934
 
                    *************************************** 
                    *    InterNuclear Distances / Bohr    * 
                    *************************************** 
 
               1 S1            2 H2            3 H3    
    1 S1       0.000000
    2 H2       2.895401        0.000000
    3 H3       2.901562        3.689050        0.000000
 
                    ******************************************* 
                    *    InterNuclear Distances / Angstrom    * 
                    ******************************************* 
 
               1 S1            2 H2            3 H3    
    1 S1       0.000000
    2 H2       1.532180        0.000000
    3 H3       1.535440        1.952161        0.000000
 
                    ************************************** 
                    *    Valence Bond Angles / Degree    * 
                    ************************************** 
                          Atom centers                 Phi
                      2 H2       1 S1       3 H3        79.04
--
 
 
            Nuclear Potential Energy             11.31134847 au
 
--- Stop Module: gateway at Tue Mar 26 17:55:16 2024 /rc=_RC_ALL_IS_WELL_ ---

--- Start Module: seward at Tue Mar 26 17:55:16 2024 ---
 
()()()()()()()()()()()()()()()()()()()()()()()()()()()()()()()()()()()()()()()()()()()()()()()()()()

                                              &SEWARD

                                   only a single process is used
                       available to each process: 10 GB of memory, 1 thread?
                                            pid: 425402
()()()()()()()()()()()()()()()()()()()()()()()()()()()()()()()()()()()()()()()()()()()()()()()()()()
 
               SEWARD will generate:
                  Multipole Moment integrals up to order  2
                  Kinetic Energy integrals
                  Nuclear Attraction integrals (point charge)
                  One-Electron Hamiltonian integrals
                  Velocity integrals
                  Orbital angular momentum around ( 0.0000  0.0000  0.0000 )
                  Velocity quadrupole around (-0.0056  0.0000  0.1341 )
                  Atomic mean-field integrals
                  RI decomposed two-electron repulsion integrals stored Cholesky style
                   - acCD auxiliary basis
                   - CD Threshold:   0.10E-03
 
                   Integrals are discarded if absolute value <: 0.10E-13
                   Integral cutoff threshold is set to       <: 0.10E-15
 
            Nuclear Potential Energy             11.31134847 au
 
 
      Basis set specifications :
      Symmetry species         a  
      Basis functions           28
 
 
      Input file to MOLDEN was generated!
 
--- Stop Module: seward at Tue Mar 26 17:55:17 2024 /rc=_RC_ALL_IS_WELL_ ---

*** symbolic link created: INPORB -> MOLCAS.GssOrb
--- Start Module: rasscf at Tue Mar 26 17:55:17 2024 ---
 
()()()()()()()()()()()()()()()()()()()()()()()()()()()()()()()()()()()()()()()()()()()()()()()()()()

                                              &RASSCF

                                   only a single process is used
                       available to each process: 10 GB of memory, 1 thread?
                                            pid: 425427
()()()()()()()()()()()()()()()()()()()()()()()()()()()()()()()()()()()()()()()()()()()()()()()()()()
 
 
      Header of the ONEINT file:
      --------------------------
      
      Integrals generated by Gateway/Seward, Tue Mar 26 17:55:16 2024
 
 
      OrdInt status: non-squared
 
 
      Cartesian coordinates in Angstrom:
      -----------------------------------------------------
      No.  Label        X            Y            Z        
      -----------------------------------------------------
       1   S1         0.00000000   0.00000000   0.00084100
       2   H2         0.00000000   0.97479900   1.18293400
       3   H3        -0.10000000  -0.97479900   1.18293400
      -----------------------------------------------------
      Nuclear repulsion energy =   11.31134847
 
++    Wave function specifications:
      -----------------------------
 
      Number of closed shell electrons          10
      Number of electrons in active shells       8
      Max number of holes in RAS1 space          0
      Max nr of electrons in RAS3 space          0
      Number of inactive orbitals                5
      Number of active orbitals                  6
      Number of secondary orbitals              17
      Spin quantum number                      0.0
      State symmetry                             1
--
 
++    Orbital specifications:
      -----------------------
 
      Symmetry species                           1
                                                 a
      Frozen orbitals                            0
      Inactive orbitals                          5
      Active orbitals                            6
      RAS1 orbitals                              0
      RAS2 orbitals                              6
      RAS3 orbitals                              0
      Secondary orbitals                        17
      Deleted orbitals                           0
      Number of basis functions                 28
--
 
++    CI expansion specifications:
      ----------------------------
 
      Number of CSFs                           105
      Number of determinants                   120
      Number of root(s) required                10
      Root chosen for geometry opt.             10
      CI roots used                              1     2     3     4     5     6     7     8     9    10
      weights                                0.100 0.100 0.100 0.100 0.100 0.100 0.100 0.100 0.100 0.100
      highest root included in the CI           10
      max. size of the explicit Hamiltonian    105
--
 
++    Optimization specifications:
      ----------------------------
 
      RASSCF algorithm: LK RI/DF
      Maximum number of macro iterations       200
      Maximum number of SX iterations          100
      Threshold for RASSCF energy            0.100E-07
      Threshold for max MO rotation          0.100E-03
      Threshold for max BLB element          0.100E-03
      Level shift parameter                  0.500E+00
      Make Quasi-Newton update
--
 
      Orbitals from runfile: guessorb orbitals
      The MO-coefficients are taken from guessorb on runfile
 
      Total molecular charge    0.00
 
      ************************************************************************************************************************
      *                                                                                                                      *
      *                                            Wave function control section                                             *
      *                                                                                                                      *
      ************************************************************************************************************************
 
 
                                         RASSCF iterations: Energy and convergence statistics
                                         ----------------------------------------------------
 
      Iter CI   SX   CI       RASSCF       Energy    max ROT     max BLB   max BLB  Level Ln srch  Step   QN   Walltime
          iter iter root      energy       change     param      element    value   shift minimum  type update hh:mm:ss
 Nr of preliminary CI iterations:   1
        1   1   79    0  -398.26969976    0.00E+00   0.14E+00*   7  18 1  0.14E+00*  0.00   0.00    SX    NO    0:00:00
        2   1   31    0  -398.34815254   -0.78E-01* -0.67E-01*  11  13 1 -0.31E-01*  0.00   0.00    SX    NO    0:00:00
        3   1   14    0  -398.35517623   -0.70E-02*  0.27E-01*  11  13 1 -0.12E-01*  0.00   0.00    SX    NO    0:00:00
        4   1   14    0  -398.35608083   -0.90E-03*  0.12E-01*  11  13 1 -0.50E-02*  0.00   0.00    SX    NO    0:00:00
        5   1   13    0  -398.35622120   -0.14E-03*  0.76E-02*  11  13 1 -0.20E-02*  0.00   1.67    LS   YES    0:00:00
        6   1   11    0  -398.35624821   -0.27E-04*  0.36E-03*   6  13 1 -0.29E-03*  0.00   1.02    QN   YES    0:00:00
        7   1    9    0  -398.35624859   -0.38E-06* -0.12E-03*   7  12 1  0.50E-04   0.00   1.13    QN   YES    0:00:00
        8   1    6    0  -398.35624861   -0.25E-07*  0.17E-04   10  18 1  0.10E-04   0.00   1.06    QN   YES    0:00:00
        9   1    5    0  -398.35624861   -0.51E-09   0.34E-05    6  13 1  0.23E-05   0.00   1.19    QN   YES    0:00:00
      Convergence after  9 iterations
       10   1    5    0  -398.35624861   -0.27E-10   0.34E-05    7  18 1  0.22E-06   0.00   1.19    QN   YES    0:00:00
 
      ************************************************************************************************************************
                                                      Wave function printout:
                       occupation of active orbitals, and spin coupling of open shells (u,d: Spin up or down)
      ************************************************************************************************************************
 
      Note: transformation to natural orbitals
      has been made, which may change the order of the CSFs.
 
      printout of CI-coefficients larger than  0.10 for root  1
      energy=    -398.690796
      conf/sym  111111     Coeff  Weight
             1  222200  -0.95825 0.91824
             9  22u20d   0.14513 0.02106
            15  2u22d0   0.15740 0.02477
            38  2ud2ud   0.10455 0.01093
 
      printout of CI-coefficients larger than  0.10 for root  2
      energy=    -398.510185
      conf/sym  111111     Coeff  Weight
             2  222ud0   0.97503 0.95069
            11  22uudd  -0.11959 0.01430
 
      printout of CI-coefficients larger than  0.10 for root  3
      energy=    -398.476147
      conf/sym  111111     Coeff  Weight
             4  222u0d  -0.96332 0.92799
             8  22ud20  -0.11729 0.01376
            18  2u2dud  -0.14778 0.02184
            51  202u2d  -0.10848 0.01177
 
      printout of CI-coefficients larger than  0.10 for root  4
      energy=    -398.351934
      conf/sym  111111     Coeff  Weight
             9  22u20d  -0.73037 0.53344
            15  2u22d0   0.60270 0.36325
            31  220220  -0.17681 0.03126
            52  202202   0.14656 0.02148
 
      printout of CI-coefficients larger than  0.10 for root  5
      energy=    -398.347194
      conf/sym  111111     Coeff  Weight
             7  22u2d0   0.69289 0.48009
            17  2u220d  -0.64705 0.41867
            32  2202ud   0.10661 0.01137
            37  2ud220  -0.17403 0.03029
            40  2ud202   0.18508 0.03426
 
      printout of CI-coefficients larger than  0.10 for root  6
      energy=    -398.279343
      conf/sym  111111     Coeff  Weight
             7  22u2d0  -0.67683 0.45810
            17  2u220d  -0.71543 0.51184
 
      printout of CI-coefficients larger than  0.10 for root  7
      energy=    -398.265825
      conf/sym  111111     Coeff  Weight
             3  222020  -0.75501 0.57004
             6  222002   0.52938 0.28024
             9  22u20d  -0.22671 0.05140
            12  22u02d  -0.11120 0.01236
            15  2u22d0  -0.13742 0.01888
            22  2u20d2  -0.17433 0.03039
            25  u2220d   0.10376 0.01077
 
      printout of CI-coefficients larger than  0.10 for root  8
      energy=    -398.216890
      conf/sym  111111     Coeff  Weight
             1  222200   0.18343 0.03365
             3  222020  -0.24283 0.05896
             6  222002   0.12598 0.01587
             9  22u20d   0.55575 0.30885
            15  2u22d0   0.69011 0.47626
            49  202220  -0.14952 0.02236
            67  2uu2dd   0.17230 0.02969
            82  20u22d   0.12971 0.01683
 
      printout of CI-coefficients larger than  0.10 for root  9
      energy=    -398.215561
      conf/sym  111111     Coeff  Weight
            11  22uudd  -0.49939 0.24939
            16  2u2d20   0.68698 0.47194
            21  2u2d02  -0.49281 0.24286
 
      printout of CI-coefficients larger than  0.10 for root 10
      energy=    -398.208610
      conf/sym  111111     Coeff  Weight
             8  22ud20  -0.63818 0.40728
            13  22ud02   0.53179 0.28280
            19  2u2udd   0.50431 0.25433
            51  202u2d   0.11056 0.01222
            69  2uudd2  -0.11118 0.01236
 
      Natural orbitals and occupation numbers for root  1
      sym 1:   1.997178   1.960374   1.963769   1.998361   0.048817   0.031501
 
      Natural orbitals and occupation numbers for root  2
      sym 1:   1.998796   1.985431   1.961014   1.000000   0.998770   0.055989
 
      Natural orbitals and occupation numbers for root  3
      sym 1:   1.998723   1.937366   1.971250   1.000000   0.100449   0.992211
 
      Natural orbitals and occupation numbers for root  4
      sym 1:   1.976905   1.575608   1.369489   1.981513   0.469961   0.626524
 
      Natural orbitals and occupation numbers for root  5
      sym 1:   1.992044   1.520620   1.393122   1.997203   0.609612   0.487400
 
      Natural orbitals and occupation numbers for root  6
      sym 1:   1.990802   1.468051   1.513715   1.998306   0.493917   0.535208
 
      Natural orbitals and occupation numbers for root  7
      sym 1:   1.990927   1.959079   1.921243   0.208629   1.220853   0.699270
 
      Natural orbitals and occupation numbers for root  8
      sym 1:   1.982830   1.400278   1.616383   1.845087   0.733435   0.421986
 
      Natural orbitals and occupation numbers for root  9
      sym 1:   1.998007   1.269236   1.736360   1.000000   1.223390   0.773007
 
      Natural orbitals and occupation numbers for root 10
      sym 1:   1.997688   1.734333   1.270033   1.000000   1.111028   0.886918
 
      ************************************************************************************************************************
      *                                                                                                                      *
      *                                                    Final results                                                     *
      *                                                                                                                      *
      ************************************************************************************************************************
 
 
++    Wave function specifications:
      -----------------------------
 
      Number of closed shell electrons          10
      Number of electrons in active shells       8
      Max number of holes in RAS1 space          0
      Max nr of electrons in RAS3 space          0
      Number of inactive orbitals                5
      Number of active orbitals                  6
      Number of secondary orbitals              17
      Spin quantum number                      0.0
      State symmetry                             1
--
 
++    Orbital specifications:
      -----------------------
 
      Symmetry species                           1
                                                 a
      Frozen orbitals                            0
      Inactive orbitals                          5
      Active orbitals                            6
      RAS1 orbitals                              0
      RAS2 orbitals                              6
      RAS3 orbitals                              0
      Secondary orbitals                        17
      Deleted orbitals                           0
      Number of basis functions                 28
--
 
++    CI expansion specifications:
      ----------------------------
 
      Number of CSFs                           105
      Number of determinants                   120
      Number of root(s) required                10
      CI roots used                              1     2     3     4     5     6     7     8     9    10
      weights                                0.100 0.100 0.100 0.100 0.100 0.100 0.100 0.100 0.100 0.100
      highest root included in the CI           10
      Root passed to geometry opt.              10
--
 
++    Final optimization conditions:
      ------------------------------
 
      Average CI energy                            -398.35624861
      RASSCF energy for state 10                   -398.20861014
      Super-CI energy                                -0.00000000
      RASSCF energy change                           -0.00000000
      Max change in MO coefficients               0.569E-05
      Max non-diagonal density matrix element     0.337E-05
      Maximum BLB matrix element                  0.221E-06
      (orbital pair   7,  18 in symmetry   1)
      Norm of electronic gradient            0.785E-01
--
 
 
      Final state energy(ies):
      ------------------------
 
::    RASSCF root number  1 Total energy:   -398.69079613
::    RASSCF root number  2 Total energy:   -398.51018540
::    RASSCF root number  3 Total energy:   -398.47614657
::    RASSCF root number  4 Total energy:   -398.35193447
::    RASSCF root number  5 Total energy:   -398.34719447
::    RASSCF root number  6 Total energy:   -398.27934348
::    RASSCF root number  7 Total energy:   -398.26582451
::    RASSCF root number  8 Total energy:   -398.21688958
::    RASSCF root number  9 Total energy:   -398.21556141
::    RASSCF root number 10 Total energy:   -398.20861014
      Von Neumann Entropy (Root   1) =  0.28248
 

      Mulliken population analysis for root number:  1
      -----------------------------------------------
 
 
++    Molecular charges:
      ------------------
 
      Mulliken charges per centre
      ---------------------------
 
                S1      H2      H3    
      Total   16.0832  0.9584  0.9584
 
      N-E     -0.0832  0.0416  0.0416
 
      Total electronic charge=   18.000000
 
      Total            charge=   -0.000000
--
 
 

      Expectation values of various properties for root number:  1
      -----------------------------------------------------------
 
 
++    Molecular properties:
      ---------------------
 
      Charge (e):
                      =   -0.0000
      Dipole Moment (Debye):
      Origin of the operator (Ang)=    0.0000    0.0000    0.0000
                   X= -3.5552E-02               Y=  3.2014E-03               Z=  8.4440E-01           Total=  8.4515E-01
      Quadrupole Moment (Debye*Ang):
      Origin of the operator (Ang)=   -0.0030    0.0000    0.0709
                  XX= -1.6616E+01              XY=  1.7134E-01              XZ= -1.5280E-01              YY= -1.3286E+01
                  YZ=  6.5786E-03              ZZ= -1.3011E+01
      In traceless form (Debye*Ang)
                  XX= -3.4678E+00              XY=  2.5700E-01              XZ= -2.2920E-01              YY=  1.5279E+00
                  YZ=  9.8679E-03              ZZ=  1.9399E+00
--
 
      Von Neumann Entropy (Root   2) =  1.18387
 

      Mulliken population analysis for root number:  2
      -----------------------------------------------
 
 
++    Molecular charges:
      ------------------
 
      Mulliken charges per centre
      ---------------------------
 
                S1      H2      H3    
      Total   15.9103  1.0410  1.0488
 
      N-E      0.0897 -0.0410 -0.0488
 
      Total electronic charge=   18.000000
 
      Total            charge=   -0.000000
--
 
 

      Expectation values of various properties for root number:  2
      -----------------------------------------------------------
 
 
++    Molecular properties:
      ---------------------
 
      Charge (e):
                      =   -0.0000
      Dipole Moment (Debye):
      Origin of the operator (Ang)=    0.0000    0.0000    0.0000
                   X=  5.2347E-03               Y=  4.0516E-02               Z= -7.4627E-02           Total=  8.5077E-02
      Quadrupole Moment (Debye*Ang):
      Origin of the operator (Ang)=   -0.0030    0.0000    0.0709
                  XX= -1.3998E+01              XY= -1.5553E-01              XZ=  1.0876E-01              YY= -1.6936E+01
                  YZ=  9.9210E-02              ZZ= -1.6437E+01
      In traceless form (Debye*Ang)
                  XX=  2.6881E+00              XY= -2.3329E-01              XZ=  1.6314E-01              YY= -1.7186E+00
                  YZ=  1.4882E-01              ZZ= -9.6948E-01
--
 
      Von Neumann Entropy (Root   3) =  1.28442
 

      Mulliken population analysis for root number:  3
      -----------------------------------------------
 
 
++    Molecular charges:
      ------------------
 
      Mulliken charges per centre
      ---------------------------
 
                S1      H2      H3    
      Total   15.8136  1.0984  1.0880
 
      N-E      0.1864 -0.0984 -0.0880
 
      Total electronic charge=   18.000000
 
      Total            charge=   -0.000000
--
 
 

      Expectation values of various properties for root number:  3
      -----------------------------------------------------------
 
 
++    Molecular properties:
      ---------------------
 
      Charge (e):
                      =   -0.0000
      Dipole Moment (Debye):
      Origin of the operator (Ang)=    0.0000    0.0000    0.0000
                   X=  4.3957E-02               Y= -4.6795E-02               Z= -1.0960E+00           Total=  1.0979E+00
      Quadrupole Moment (Debye*Ang):
      Origin of the operator (Ang)=   -0.0030    0.0000    0.0709
                  XX= -1.4360E+01              XY= -1.1716E-01              XZ=  1.6851E-01              YY= -1.6736E+01
                  YZ= -1.2643E-01              ZZ= -1.8484E+01
      In traceless form (Debye*Ang)
                  XX=  3.2497E+00              XY= -1.7574E-01              XZ=  2.5276E-01              YY= -3.1324E-01
                  YZ= -1.8964E-01              ZZ= -2.9364E+00
--
 
      Von Neumann Entropy (Root   4) =  1.69057
 

      Mulliken population analysis for root number:  4
      -----------------------------------------------
 
 
++    Molecular charges:
      ------------------
 
      Mulliken charges per centre
      ---------------------------
 
                S1      H2      H3    
      Total   15.9938  0.9751  1.0311
 
      N-E      0.0062  0.0249 -0.0311
 
      Total electronic charge=   18.000000
 
      Total            charge=   -0.000000
--
 
 

      Expectation values of various properties for root number:  4
      -----------------------------------------------------------
 
 
++    Molecular properties:
      ---------------------
 
      Charge (e):
                      =   -0.0000
      Dipole Moment (Debye):
      Origin of the operator (Ang)=    0.0000    0.0000    0.0000
                   X=  2.5429E-02               Y=  2.2596E-01               Z= -3.2717E-01           Total=  3.9843E-01
      Quadrupole Moment (Debye*Ang):
      Origin of the operator (Ang)=   -0.0030    0.0000    0.0709
                  XX= -1.6962E+01              XY=  4.5310E-02              XZ= -1.6040E-02              YY= -1.5555E+01
                  YZ=  6.3870E-01              ZZ= -1.5811E+01
      In traceless form (Debye*Ang)
                  XX= -1.2789E+00              XY=  6.7964E-02              XZ= -2.4060E-02              YY=  8.3168E-01
                  YZ=  9.5805E-01              ZZ=  4.4721E-01
--
 
      Von Neumann Entropy (Root   5) =  1.69053
 

      Mulliken population analysis for root number:  5
      -----------------------------------------------
 
 
++    Molecular charges:
      ------------------
 
      Mulliken charges per centre
      ---------------------------
 
                S1      H2      H3    
      Total   16.0315  1.0132  0.9554
 
      N-E     -0.0315 -0.0132  0.0446
 
      Total electronic charge=   18.000000
 
      Total            charge=   -0.000000
--
 
 

      Expectation values of various properties for root number:  5
      -----------------------------------------------------------
 
 
++    Molecular properties:
      ---------------------
 
      Charge (e):
                      =   -0.0000
      Dipole Moment (Debye):
      Origin of the operator (Ang)=    0.0000    0.0000    0.0000
                   X= -1.2495E-02               Y= -2.3161E-01               Z=  1.4549E-02           Total=  2.3240E-01
      Quadrupole Moment (Debye*Ang):
      Origin of the operator (Ang)=   -0.0030    0.0000    0.0709
                  XX= -1.6996E+01              XY=  1.1112E-01              XZ= -9.0111E-02              YY= -1.5372E+01
                  YZ= -6.4650E-01              ZZ= -1.5659E+01
      In traceless form (Debye*Ang)
                  XX= -1.4804E+00              XY=  1.6669E-01              XZ= -1.3517E-01              YY=  9.5538E-01
                  YZ= -9.6975E-01              ZZ=  5.2499E-01
--
 
      Von Neumann Entropy (Root   6) =  1.64669
 

      Mulliken population analysis for root number:  6
      -----------------------------------------------
 
 
++    Molecular charges:
      ------------------
 
      Mulliken charges per centre
      ---------------------------
 
                S1      H2      H3    
      Total   15.9881  1.0057  1.0062
 
      N-E      0.0119 -0.0057 -0.0062
 
      Total electronic charge=   18.000000
 
      Total            charge=   -0.000000
--
 
 

      Expectation values of various properties for root number:  6
      -----------------------------------------------------------
 
 
++    Molecular properties:
      ---------------------
 
      Charge (e):
                      =   -0.0000
      Dipole Moment (Debye):
      Origin of the operator (Ang)=    0.0000    0.0000    0.0000
                   X= -1.5499E-02               Y=  3.6156E-03               Z=  3.7081E-01           Total=  3.7115E-01
      Quadrupole Moment (Debye*Ang):
      Origin of the operator (Ang)=   -0.0030    0.0000    0.0709
                  XX= -1.6986E+01              XY=  9.2906E-02              XZ= -5.1207E-02              YY= -1.5164E+01
                  YZ=  2.1727E-02              ZZ= -1.5756E+01
      In traceless form (Debye*Ang)
                  XX= -1.5262E+00              XY=  1.3936E-01              XZ= -7.6811E-02              YY=  1.2073E+00
                  YZ=  3.2590E-02              ZZ=  3.1891E-01
--
 
      Von Neumann Entropy (Root   7) =  1.39636
 

      Mulliken population analysis for root number:  7
      -----------------------------------------------
 
 
++    Molecular charges:
      ------------------
 
      Mulliken charges per centre
      ---------------------------
 
                S1      H2      H3    
      Total   15.5872  1.2076  1.2052
 
      N-E      0.4128 -0.2076 -0.2052
 
      Total electronic charge=   18.000000
 
      Total            charge=   -0.000000
--
 
 

      Expectation values of various properties for root number:  7
      -----------------------------------------------------------
 
 
++    Molecular properties:
      ---------------------
 
      Charge (e):
                      =   -0.0000
      Dipole Moment (Debye):
      Origin of the operator (Ang)=    0.0000    0.0000    0.0000
                   X=  8.5338E-02               Y= -1.0457E-02               Z= -2.0302E+00           Total=  2.0321E+00
      Quadrupole Moment (Debye*Ang):
      Origin of the operator (Ang)=   -0.0030    0.0000    0.0709
                  XX= -1.2170E+01              XY= -4.1457E-01              XZ=  3.8907E-01              YY= -2.0245E+01
                  YZ= -3.6689E-02              ZZ= -2.1375E+01
      In traceless form (Debye*Ang)
                  XX=  8.6401E+00              XY= -6.2186E-01              XZ=  5.8361E-01              YY= -3.4724E+00
                  YZ= -5.5034E-02              ZZ= -5.1677E+00
--
 
      Von Neumann Entropy (Root   8) =  1.73237
 

      Mulliken population analysis for root number:  8
      -----------------------------------------------
 
 
++    Molecular charges:
      ------------------
 
      Mulliken charges per centre
      ---------------------------
 
                S1      H2      H3    
      Total   15.9753  1.0134  1.0112
 
      N-E      0.0247 -0.0134 -0.0112
 
      Total electronic charge=   18.000000
 
      Total            charge=   -0.000000
--
 
 

      Expectation values of various properties for root number:  8
      -----------------------------------------------------------
 
 
++    Molecular properties:
      ---------------------
 
      Charge (e):
                      =   -0.0000
      Dipole Moment (Debye):
      Origin of the operator (Ang)=    0.0000    0.0000    0.0000
                   X= -1.3062E-02               Y= -6.3377E-03               Z=  3.0112E-01           Total=  3.0147E-01
      Quadrupole Moment (Debye*Ang):
      Origin of the operator (Ang)=   -0.0030    0.0000    0.0709
                  XX= -1.6512E+01              XY=  5.5813E-02              XZ= -8.8943E-03              YY= -1.5448E+01
                  YZ= -2.5602E-02              ZZ= -1.6336E+01
      In traceless form (Debye*Ang)
                  XX= -6.1988E-01              XY=  8.3719E-02              XZ= -1.3341E-02              YY=  9.7577E-01
                  YZ= -3.8403E-02              ZZ= -3.5589E-01
--
 
      Von Neumann Entropy (Root   9) =  2.05865
 

      Mulliken population analysis for root number:  9
      -----------------------------------------------
 
 
++    Molecular charges:
      ------------------
 
      Mulliken charges per centre
      ---------------------------
 
                S1      H2      H3    
      Total   15.7219  1.1472  1.1309
 
      N-E      0.2781 -0.1472 -0.1309
 
      Total electronic charge=   18.000000
 
      Total            charge=   -0.000000
--
 
 

      Expectation values of various properties for root number:  9
      -----------------------------------------------------------
 
 
++    Molecular properties:
      ---------------------
 
      Charge (e):
                      =   -0.0000
      Dipole Moment (Debye):
      Origin of the operator (Ang)=    0.0000    0.0000    0.0000
                   X=  6.3514E-02               Y= -4.9230E-02               Z= -1.5613E+00           Total=  1.5634E+00
      Quadrupole Moment (Debye*Ang):
      Origin of the operator (Ang)=   -0.0030    0.0000    0.0709
                  XX= -1.4493E+01              XY= -2.0337E-01              XZ=  2.5846E-01              YY= -1.8580E+01
                  YZ= -1.7285E-01              ZZ= -2.0792E+01
      In traceless form (Debye*Ang)
                  XX=  5.1925E+00              XY= -3.0506E-01              XZ=  3.8770E-01              YY= -9.3674E-01
                  YZ= -2.5927E-01              ZZ= -4.2557E+00
--
 
      Von Neumann Entropy (Root  10) =  2.08736
 

      Mulliken population analysis for root number: 10
      -----------------------------------------------
 
 
++    Molecular charges:
      ------------------
 
      Mulliken charges per centre
      ---------------------------
 
                S1      H2      H3    
      Total   15.7194  1.1335  1.1471
 
      N-E      0.2806 -0.1335 -0.1471
 
      Total electronic charge=   18.000000
 
      Total            charge=   -0.000000
--
 
 

      Expectation values of various properties for root number: 10
      -----------------------------------------------------------
 
 
++    Molecular properties:
      ---------------------
 
      Charge (e):
                      =   -0.0000
      Dipole Moment (Debye):
      Origin of the operator (Ang)=    0.0000    0.0000    0.0000
                   X=  7.9312E-02               Y=  3.6547E-02               Z= -1.8308E+00           Total=  1.8328E+00
      Quadrupole Moment (Debye*Ang):
      Origin of the operator (Ang)=   -0.0030    0.0000    0.0709
                  XX= -1.4541E+01              XY= -2.6753E-01              XZ=  2.3287E-01              YY= -1.9625E+01
                  YZ=  1.3109E-01              ZZ= -1.9864E+01
      In traceless form (Debye*Ang)
                  XX=  5.2035E+00              XY= -4.0129E-01              XZ=  3.4931E-01              YY= -2.4225E+00
                  YZ=  1.9664E-01              ZZ= -2.7810E+00
--
 
 
      Input file to MOLDEN was generated!
 
 
      Input file to MOLDEN was generated!
 
 
      Input file to MOLDEN was generated!
 
 
      Input file to MOLDEN was generated!
 
 
      Input file to MOLDEN was generated!
 
 
      Input file to MOLDEN was generated!
 
 
      Input file to MOLDEN was generated!
 
 
      Input file to MOLDEN was generated!
 
 
      Input file to MOLDEN was generated!
 
 
      Input file to MOLDEN was generated!
 
 
      Input file to MOLDEN was generated!
 
      Average orbitals are written to the RASORB file
      Natural orbitals for root   1 are written to the RASORB.1 file
      Natural orbitals for root   2 are written to the RASORB.2 file
      Natural orbitals for root   3 are written to the RASORB.3 file
      Natural orbitals for root   4 are written to the RASORB.4 file
      Natural orbitals for root   5 are written to the RASORB.5 file
      Natural orbitals for root   6 are written to the RASORB.6 file
      Natural orbitals for root   7 are written to the RASORB.7 file
      Natural orbitals for root   8 are written to the RASORB.8 file
      Natural orbitals for root   9 are written to the RASORB.9 file
      Natural orbitals for root  10 are written to the RASORB.10 file
      Spin density orbitals for root   1 are written to the SPDORB.1 file
      Spin density orbitals for root   2 are written to the SPDORB.2 file
      Spin density orbitals for root   3 are written to the SPDORB.3 file
      Spin density orbitals for root   4 are written to the SPDORB.4 file
      Spin density orbitals for root   5 are written to the SPDORB.5 file
      Spin density orbitals for root   6 are written to the SPDORB.6 file
      Spin density orbitals for root   7 are written to the SPDORB.7 file
      Spin density orbitals for root   8 are written to the SPDORB.8 file
      Spin density orbitals for root   9 are written to the SPDORB.9 file
      Spin density orbitals for root  10 are written to the SPDORB.10 file
 
 ###############################################################################
 ###############################################################################
 ###                                                                         ###
 ###                                                                         ###
 ###    WARNING: RunFile label BirthCertificate                              ###
 ###    was used       51 times                                              ###
 ###                                                                         ###
 ###                                                                         ###
 ###############################################################################
 ###############################################################################
 ###############################################################################
 ###############################################################################
 ###                                                                         ###
 ###                                                                         ###
 ###    WARNING: RunFile label nBas                                          ###
 ###    was used       59 times                                              ###
 ###                                                                         ###
 ###                                                                         ###
 ###############################################################################
 ###############################################################################
--- Stop Module: rasscf at Tue Mar 26 17:55:21 2024 /rc=_RC_ALL_IS_WELL_ ---
--- Module rasscf spent 3 seconds ---

>>> COPY MOLCAS.JobIph MOLCAS.1.JobIph

*** symbolic link created: INPORB -> MOLCAS.RasOrb
--- Start Module: rasscf at Tue Mar 26 17:55:21 2024 ---
 
()()()()()()()()()()()()()()()()()()()()()()()()()()()()()()()()()()()()()()()()()()()()()()()()()()

                                              &RASSCF

                                   only a single process is used
                       available to each process: 10 GB of memory, 1 thread?
                                            pid: 425430
()()()()()()()()()()()()()()()()()()()()()()()()()()()()()()()()()()()()()()()()()()()()()()()()()()
 
 
      Header of the ONEINT file:
      --------------------------
      
      Integrals generated by Gateway/Seward, Tue Mar 26 17:55:16 2024
 
 
      OrdInt status: non-squared
 
 
      Cartesian coordinates in Angstrom:
      -----------------------------------------------------
      No.  Label        X            Y            Z        
      -----------------------------------------------------
       1   S1         0.00000000   0.00000000   0.00084100
       2   H2         0.00000000   0.97479900   1.18293400
       3   H3        -0.10000000  -0.97479900   1.18293400
      -----------------------------------------------------
      Nuclear repulsion energy =   11.31134847
 
++    Wave function specifications:
      -----------------------------
 
      Number of closed shell electrons          10
      Number of electrons in active shells       7
      Max number of holes in RAS1 space          0
      Max nr of electrons in RAS3 space          0
      Number of inactive orbitals                5
      Number of active orbitals                  6
      Number of secondary orbitals              17
      Spin quantum number                      0.5
      State symmetry                             1
--
 
++    Orbital specifications:
      -----------------------
 
      Symmetry species                           1
                                                 a
      Frozen orbitals                            0
      Inactive orbitals                          5
      Active orbitals                            6
      RAS1 orbitals                              0
      RAS2 orbitals                              6
      RAS3 orbitals                              0
      Secondary orbitals                        17
      Deleted orbitals                           0
      Number of basis functions                 28
--
 
++    CI expansion specifications:
      ----------------------------
 
      Number of CSFs                           210
      Number of determinants                   300
      Number of root(s) required                 5
      Root chosen for geometry opt.              5
      CI roots used                              1     2     3     4     5
      weights                                0.200 0.200 0.200 0.200 0.200
      highest root included in the CI            5
      max. size of the explicit Hamiltonian    200
--
 
++    Optimization specifications:
      ----------------------------
 
      RASSCF algorithm: LK RI/DF
      Maximum number of macro iterations       200
      Maximum number of SX iterations          100
      Threshold for RASSCF energy            0.100E-07
      Threshold for max MO rotation          0.100E-03
      Threshold for max BLB element          0.100E-03
      Level shift parameter                  0.500E+00
      Make Quasi-Newton update
--
 
      Orbitals from runfile: rasscf orbitals
      The MO-coefficients are taken from rasscf orbitals on runfile
 
      Total molecular charge    1.00
 
      ************************************************************************************************************************
      *                                                                                                                      *
      *                                            Wave function control section                                             *
      *                                                                                                                      *
      ************************************************************************************************************************
 
 
                                         RASSCF iterations: Energy and convergence statistics
                                         ----------------------------------------------------
 
      Iter CI   SX   CI       RASSCF       Energy    max ROT     max BLB   max BLB  Level Ln srch  Step   QN   Walltime
          iter iter root      energy       change     param      element    value   shift minimum  type update hh:mm:ss
 Nr of preliminary CI iterations:   3
        1   1   12    0  -398.16659737    0.00E+00   0.11E+00*   8  14 1  0.81E-01*  0.00   0.00    SX    NO    0:00:00
        2   3    6    0  -398.18920269   -0.23E-01*  0.48E-01*   5  15 1  0.98E-02*  0.00   0.00    SX    NO    0:00:00
        3   3    6    0  -398.19040521   -0.12E-02* -0.20E-01*  11  13 1  0.33E-02*  0.00   0.00    SX    NO    0:00:00
        4   3    5    0  -398.19055224   -0.15E-03*  0.83E-02*  11  13 1  0.13E-02*  0.00   0.00    SX    NO    0:00:00
        5   3    5    0  -398.19057513   -0.23E-04*  0.56E-02*  11  13 1  0.56E-03*  0.00   1.69    LS   YES    0:00:00
        6   3    5    0  -398.19057969   -0.46E-05* -0.55E-03*   7  21 1  0.13E-03*  0.00   1.01    QN   YES    0:00:00
        7   3    4    0  -398.19057991   -0.22E-06* -0.22E-03*  11  20 1  0.41E-04   0.00   1.40    LS   YES    0:00:00
        8   3    4    0  -398.19057993   -0.19E-07* -0.86E-04    3  14 1  0.48E-04   0.00   0.98    QN   YES    0:00:00
        9   1    3    0  -398.19057994   -0.89E-08   0.14E-04    7  17 1  0.55E-05   0.00   1.00    QN   YES    0:00:00
      Convergence after  9 iterations
       10   1    3    0  -398.19057994   -0.22E-09   0.14E-04    7  12 1 -0.66E-06   0.00   1.00    QN   YES    0:00:00
 
      ************************************************************************************************************************
                                                      Wave function printout:
                       occupation of active orbitals, and spin coupling of open shells (u,d: Spin up or down)
      ************************************************************************************************************************
 
      Note: transformation to natural orbitals
      has been made, which may change the order of the CSFs.
 
      printout of CI-coefficients larger than  0.10 for root  1
      energy=    -398.363744
      conf/sym  111111     Coeff  Weight
             1  222u00  -0.97366 0.94802
            56  202u20  -0.10012 0.01002
 
      printout of CI-coefficients larger than  0.10 for root  2
      energy=    -398.229570
      conf/sym  111111     Coeff  Weight
             4  22u200  -0.80188 0.64300
            13  2u2200  -0.54951 0.30196
 
      printout of CI-coefficients larger than  0.10 for root  3
      energy=    -398.216073
      conf/sym  111111     Coeff  Weight
             4  22u200  -0.54076 0.29242
            13  2u2200   0.78833 0.62146
            55  2022u0  -0.11068 0.01225
 
      printout of CI-coefficients larger than  0.10 for root  4
      energy=    -398.089272
      conf/sym  111111     Coeff  Weight
             2  2220u0  -0.95726 0.91635
 
      printout of CI-coefficients larger than  0.10 for root  5
      energy=    -398.054241
      conf/sym  111111     Coeff  Weight
             3  22200u   0.91699 0.84086
             7  22u020  -0.11177 0.01249
            20  2u20ud  -0.10871 0.01182
            22  u22200   0.20313 0.04126
 
      Natural orbitals and occupation numbers for root  1
      sym 1:   1.994412   1.950644   1.959089   1.000000   0.058711   0.037145
 
      Natural orbitals and occupation numbers for root  2
      sym 1:   1.980369   1.939401   1.006498   1.996978   0.046947   0.029807
 
      Natural orbitals and occupation numbers for root  3
      sym 1:   1.986738   1.013414   1.933652   1.979983   0.049097   0.037116
 
      Natural orbitals and occupation numbers for root  4
      sym 1:   1.977813   1.970422   1.950040   0.049100   0.989928   0.062697
 
      Natural orbitals and occupation numbers for root  5
      sym 1:   1.943587   1.929605   1.921617   0.154091   0.116588   0.934512
 
      ************************************************************************************************************************
      *                                                                                                                      *
      *                                                    Final results                                                     *
      *                                                                                                                      *
      ************************************************************************************************************************
 
 
++    Wave function specifications:
      -----------------------------
 
      Number of closed shell electrons          10
      Number of electrons in active shells       7
      Max number of holes in RAS1 space          0
      Max nr of electrons in RAS3 space          0
      Number of inactive orbitals                5
      Number of active orbitals                  6
      Number of secondary orbitals              17
      Spin quantum number                      0.5
      State symmetry                             1
--
 
++    Orbital specifications:
      -----------------------
 
      Symmetry species                           1
                                                 a
      Frozen orbitals                            0
      Inactive orbitals                          5
      Active orbitals                            6
      RAS1 orbitals                              0
      RAS2 orbitals                              6
      RAS3 orbitals                              0
      Secondary orbitals                        17
      Deleted orbitals                           0
      Number of basis functions                 28
--
 
++    CI expansion specifications:
      ----------------------------
 
      Number of CSFs                           210
      Number of determinants                   300
      Number of root(s) required                 5
      CI roots used                              1     2     3     4     5
      weights                                0.200 0.200 0.200 0.200 0.200
      highest root included in the CI            5
      Root passed to geometry opt.               5
--
 
++    Final optimization conditions:
      ------------------------------
 
      Average CI energy                            -398.19057994
      RASSCF energy for state  5                   -398.05424052
      Super-CI energy                                -0.00000000
      RASSCF energy change                            0.00000000
      Max change in MO coefficients              -0.427E-04
      Max non-diagonal density matrix element     0.139E-04
      Maximum BLB matrix element                 -0.657E-06
      (orbital pair   7,  12 in symmetry   1)
      Norm of electronic gradient            0.847E-01
--
 
 
      Final state energy(ies):
      ------------------------
 
::    RASSCF root number  1 Total energy:   -398.36374372
::    RASSCF root number  2 Total energy:   -398.22957024
::    RASSCF root number  3 Total energy:   -398.21607305
::    RASSCF root number  4 Total energy:   -398.08927215
::    RASSCF root number  5 Total energy:   -398.05424052
      Von Neumann Entropy (Root   1) =  0.82462
 

      Mulliken population analysis for root number:  1
      -----------------------------------------------
 
 
++    Molecular charges:
      ------------------
 
      Mulliken charges per centre
      ---------------------------
 
                S1      H2      H3    
      Total   15.4572  0.7716  0.7712
 
      N-E      0.5428  0.2284  0.2288
 
      Total electronic charge=   17.000000
 
      Total            charge=    1.000000
--
 
 

      Expectation values of various properties for root number:  1
      -----------------------------------------------------------
 
 
++    Molecular properties:
      ---------------------
 
      Charge (e):
                      =    1.0000
      Dipole Moment (Debye):
      Origin of the operator (Ang)=    0.0000    0.0000    0.0000
                   X= -1.0528E-01               Y=  2.7721E-04               Z=  2.4933E+00           Total=  2.4955E+00
      Center of Charge (Ang)
                     X=   -0.02191813               Y=    0.00005771               Z=    0.51909636
      Quadrupole Moment (Debye*Ang):
      Origin of the operator (Ang)=   -0.0030    0.0000    0.0709
                  XX= -1.1677E+01              XY=  1.0246E-01              XZ= -1.1611E-01              YY= -9.6920E+00
                  YZ= -2.3653E-03              ZZ= -8.9453E+00
      In traceless form (Debye*Ang)
                  XX= -2.3588E+00              XY=  1.5369E-01              XZ= -1.7417E-01              YY=  6.1942E-01
                  YZ= -3.5480E-03              ZZ=  1.7394E+00
--
 

      Mulliken spin population analysis for root number:  1
      ---------------------------------------------------
 
 
++    Molecular charges:
      ------------------
 
      Mulliken spin population per centre
      ---------------------------
 
                S1      H2      H3    
      Total    1.1095 -0.0546 -0.0549
 
      Total electronic spin=    1.000000
--
 
 
      Von Neumann Entropy (Root   2) =  0.77536
 

      Mulliken population analysis for root number:  2
      -----------------------------------------------
 
 
++    Molecular charges:
      ------------------
 
      Mulliken charges per centre
      ---------------------------
 
                S1      H2      H3    
      Total   15.6111  0.6966  0.6923
 
      N-E      0.3889  0.3034  0.3077
 
      Total electronic charge=   17.000000
 
      Total            charge=    1.000000
--
 
 

      Expectation values of various properties for root number:  2
      -----------------------------------------------------------
 
 
++    Molecular properties:
      ---------------------
 
      Charge (e):
                      =    1.0000
      Dipole Moment (Debye):
      Origin of the operator (Ang)=    0.0000    0.0000    0.0000
                   X= -1.0576E-01               Y= -1.1361E-02               Z=  2.4907E+00           Total=  2.4930E+00
      Center of Charge (Ang)
                     X=   -0.02201923               Y=   -0.00236522               Z=    0.51854843
      Quadrupole Moment (Debye*Ang):
      Origin of the operator (Ang)=   -0.0030    0.0000    0.0709
                  XX= -1.4156E+01              XY=  2.6240E-01              XZ= -3.3532E-01              YY= -9.0960E+00
                  YZ= -3.4717E-02              ZZ= -6.2977E+00
      In traceless form (Debye*Ang)
                  XX= -6.4587E+00              XY=  3.9360E-01              XZ= -5.0298E-01              YY=  1.1306E+00
                  YZ= -5.2076E-02              ZZ=  5.3281E+00
--
 

      Mulliken spin population analysis for root number:  2
      ---------------------------------------------------
 
 
++    Molecular charges:
      ------------------
 
      Mulliken spin population per centre
      ---------------------------
 
                S1      H2      H3    
      Total    0.6637  0.1622  0.1741
 
      Total electronic spin=    1.000000
--
 
 
      Von Neumann Entropy (Root   3) =  0.80596
 

      Mulliken population analysis for root number:  3
      -----------------------------------------------
 
 
++    Molecular charges:
      ------------------
 
      Mulliken charges per centre
      ---------------------------
 
                S1      H2      H3    
      Total   15.6026  0.6966  0.7008
 
      N-E      0.3974  0.3034  0.2992
 
      Total electronic charge=   17.000000
 
      Total            charge=    1.000000
--
 
 

      Expectation values of various properties for root number:  3
      -----------------------------------------------------------
 
 
++    Molecular properties:
      ---------------------
 
      Charge (e):
                      =    1.0000
      Dipole Moment (Debye):
      Origin of the operator (Ang)=    0.0000    0.0000    0.0000
                   X= -1.3999E-01               Y=  1.0460E-02               Z=  3.3265E+00           Total=  3.3294E+00
      Center of Charge (Ang)
                     X=   -0.02914612               Y=    0.00217765               Z=    0.69255024
      Quadrupole Moment (Debye*Ang):
      Origin of the operator (Ang)=   -0.0030    0.0000    0.0709
                  XX= -1.4263E+01              XY=  3.5120E-01              XZ= -2.4930E-01              YY= -7.4062E+00
                  YZ=  4.6386E-02              ZZ= -8.3411E+00
      In traceless form (Debye*Ang)
                  XX= -6.3891E+00              XY=  5.2679E-01              XZ= -3.7395E-01              YY=  3.8958E+00
                  YZ=  6.9579E-02              ZZ=  2.4933E+00
--
 

      Mulliken spin population analysis for root number:  3
      ---------------------------------------------------
 
 
++    Molecular charges:
      ------------------
 
      Mulliken spin population per centre
      ---------------------------
 
                S1      H2      H3    
      Total    0.4040  0.3032  0.2927
 
      Total electronic spin=    1.000000
--
 
 
      Von Neumann Entropy (Root   4) =  0.86277
 

      Mulliken population analysis for root number:  4
      -----------------------------------------------
 
 
++    Molecular charges:
      ------------------
 
      Mulliken charges per centre
      ---------------------------
 
                S1      H2      H3    
      Total   15.2038  0.8937  0.9025
 
      N-E      0.7962  0.1063  0.0975
 
      Total electronic charge=   17.000000
 
      Total            charge=    1.000000
--
 
 

      Expectation values of various properties for root number:  4
      -----------------------------------------------------------
 
 
++    Molecular properties:
      ---------------------
 
      Charge (e):
                      =    1.0000
      Dipole Moment (Debye):
      Origin of the operator (Ang)=    0.0000    0.0000    0.0000
                   X= -5.7839E-02               Y=  3.6197E-02               Z=  1.4154E+00           Total=  1.4170E+00
      Center of Charge (Ang)
                     X=   -0.01204180               Y=    0.00753603               Z=    0.29467031
      Quadrupole Moment (Debye*Ang):
      Origin of the operator (Ang)=   -0.0030    0.0000    0.0709
                  XX= -9.1733E+00              XY= -1.7012E-01              XZ=  1.0863E-01              YY= -1.2415E+01
                  YZ=  7.4274E-02              ZZ= -1.1638E+01
      In traceless form (Debye*Ang)
                  XX=  2.8535E+00              XY= -2.5518E-01              XZ=  1.6295E-01              YY= -2.0096E+00
                  YZ=  1.1141E-01              ZZ= -8.4388E-01
--
 

      Mulliken spin population analysis for root number:  4
      ---------------------------------------------------
 
 
++    Molecular charges:
      ------------------
 
      Mulliken spin population per centre
      ---------------------------
 
                S1      H2      H3    
      Total    0.2173  0.3798  0.4029
 
      Total electronic spin=    1.000000
--
 
 
      Von Neumann Entropy (Root   5) =  1.18228
 

      Mulliken population analysis for root number:  5
      -----------------------------------------------
 
 
++    Molecular charges:
      ------------------
 
      Mulliken charges per centre
      ---------------------------
 
                S1      H2      H3    
      Total   15.1451  0.9327  0.9221
 
      N-E      0.8549  0.0673  0.0779
 
      Total electronic charge=   17.000000
 
      Total            charge=    1.000000
--
 
 

      Expectation values of various properties for root number:  5
      -----------------------------------------------------------
 
 
++    Molecular properties:
      ---------------------
 
      Charge (e):
                      =    1.0000
      Dipole Moment (Debye):
      Origin of the operator (Ang)=    0.0000    0.0000    0.0000
                   X= -3.7168E-02               Y= -3.8175E-02               Z=  8.3646E-01           Total=  8.3816E-01
      Center of Charge (Ang)
                     X=   -0.00773814               Y=   -0.00794789               Z=    0.17414709
      Quadrupole Moment (Debye*Ang):
      Origin of the operator (Ang)=   -0.0030    0.0000    0.0709
                  XX= -9.7169E+00              XY= -1.2111E-01              XZ=  1.2317E-01              YY= -1.2150E+01
                  YZ= -1.0053E-01              ZZ= -1.2739E+01
      In traceless form (Debye*Ang)
                  XX=  2.7275E+00              XY= -1.8167E-01              XZ=  1.8475E-01              YY= -9.2143E-01
                  YZ= -1.5080E-01              ZZ= -1.8061E+00
--
 

      Mulliken spin population analysis for root number:  5
      ---------------------------------------------------
 
 
++    Molecular charges:
      ------------------
 
      Mulliken spin population per centre
      ---------------------------
 
                S1      H2      H3    
      Total    0.1860  0.4180  0.3960
 
      Total electronic spin=    1.000000
--
 
 
 
      Input file to MOLDEN was generated!
 
 
      Input file to MOLDEN was generated!
 
 
      Input file to MOLDEN was generated!
 
 
      Input file to MOLDEN was generated!
 
 
      Input file to MOLDEN was generated!
 
 
      Input file to MOLDEN was generated!
 
      Average orbitals are written to the RASORB file
      Natural orbitals for root   1 are written to the RASORB.1 file
      Natural orbitals for root   2 are written to the RASORB.2 file
      Natural orbitals for root   3 are written to the RASORB.3 file
      Natural orbitals for root   4 are written to the RASORB.4 file
      Natural orbitals for root   5 are written to the RASORB.5 file
      Spin density orbitals for root   1 are written to the SPDORB.1 file
      Spin density orbitals for root   2 are written to the SPDORB.2 file
      Spin density orbitals for root   3 are written to the SPDORB.3 file
      Spin density orbitals for root   4 are written to the SPDORB.4 file
      Spin density orbitals for root   5 are written to the SPDORB.5 file
 
--- Stop Module: rasscf at Tue Mar 26 17:55:23 2024 /rc=_RC_ALL_IS_WELL_ ---
--- Module rasscf spent 2 seconds ---

>>> COPY MOLCAS.JobIph MOLCAS.2.JobIph

*** symbolic link created: INPORB -> MOLCAS.RasOrb
--- Start Module: rasscf at Tue Mar 26 17:55:23 2024 ---
 
()()()()()()()()()()()()()()()()()()()()()()()()()()()()()()()()()()()()()()()()()()()()()()()()()()

                                              &RASSCF

                                   only a single process is used
                       available to each process: 10 GB of memory, 1 thread?
                                            pid: 425437
()()()()()()()()()()()()()()()()()()()()()()()()()()()()()()()()()()()()()()()()()()()()()()()()()()
 
 
      Header of the ONEINT file:
      --------------------------
      
      Integrals generated by Gateway/Seward, Tue Mar 26 17:55:16 2024
 
 
      OrdInt status: non-squared
 
 
      Cartesian coordinates in Angstrom:
      -----------------------------------------------------
      No.  Label        X            Y            Z        
      -----------------------------------------------------
       1   S1         0.00000000   0.00000000   0.00084100
       2   H2         0.00000000   0.97479900   1.18293400
       3   H3        -0.10000000  -0.97479900   1.18293400
      -----------------------------------------------------
      Nuclear repulsion energy =   11.31134847
 
++    Wave function specifications:
      -----------------------------
 
      Number of closed shell electrons          10
      Number of electrons in active shells       8
      Max number of holes in RAS1 space          0
      Max nr of electrons in RAS3 space          0
      Number of inactive orbitals                5
      Number of active orbitals                  6
      Number of secondary orbitals              17
      Spin quantum number                      1.0
      State symmetry                             1
--
 
++    Orbital specifications:
      -----------------------
 
      Symmetry species                           1
                                                 a
      Frozen orbitals                            0
      Inactive orbitals                          5
      Active orbitals                            6
      RAS1 orbitals                              0
      RAS2 orbitals                              6
      RAS3 orbitals                              0
      Secondary orbitals                        17
      Deleted orbitals                           0
      Number of basis functions                 28
--
 
++    CI expansion specifications:
      ----------------------------
 
      Number of CSFs                           105
      Number of determinants                   120
      Number of root(s) required                 4
      Root chosen for geometry opt.              4
      CI roots used                              1     2     3     4
      weights                                0.250 0.250 0.250 0.250
      highest root included in the CI            4
      max. size of the explicit Hamiltonian    105
--
 
++    Optimization specifications:
      ----------------------------
 
      RASSCF algorithm: LK RI/DF
      Maximum number of macro iterations       200
      Maximum number of SX iterations          100
      Threshold for RASSCF energy            0.100E-07
      Threshold for max MO rotation          0.100E-03
      Threshold for max BLB element          0.100E-03
      Level shift parameter                  0.500E+00
      Make Quasi-Newton update
--
 
      Orbitals from runfile: rasscf orbitals
      The MO-coefficients are taken from rasscf orbitals on runfile
 
      Total molecular charge    0.00
 
      ************************************************************************************************************************
      *                                                                                                                      *
      *                                            Wave function control section                                             *
      *                                                                                                                      *
      ************************************************************************************************************************
 
 
                                         RASSCF iterations: Energy and convergence statistics
                                         ----------------------------------------------------
 
      Iter CI   SX   CI       RASSCF       Energy    max ROT     max BLB   max BLB  Level Ln srch  Step   QN   Walltime
          iter iter root      energy       change     param      element    value   shift minimum  type update hh:mm:ss
 Nr of preliminary CI iterations:   1
        1   1   66    0  -398.45216135    0.00E+00   0.12E+00*   9  15 1 -0.85E-01*  0.04   0.00    SX    NO    0:00:00
        2   1    8    0  -398.48233482   -0.30E-01*  0.19E-01*   6  20 1  0.16E-01*  0.00   0.00    SX    NO    0:00:00
        3   1    7    0  -398.48290185   -0.57E-03*  0.59E-02*   3  15 1  0.28E-02*  0.00   0.00    SX    NO    0:00:00
        4   1    6    0  -398.48293019   -0.28E-04*  0.16E-02*   6  20 1  0.74E-03*  0.00   0.00    SX    NO    0:00:00
        5   1    6    0  -398.48293204   -0.18E-05*  0.72E-03*  11  13 1 -0.12E-03*  0.00   1.29    QN   YES    0:00:00
        6   1    4    0  -398.48293221   -0.17E-06*  0.10E-04    9  17 1  0.16E-04   0.00   0.99    QN   YES    0:00:00
        7   1    3    0  -398.48293221   -0.57E-09   0.50E-05    9  17 1  0.60E-05   0.00   2.50    QN   YES    0:00:00
      Convergence after  7 iterations
        8   1    3    0  -398.48293221   -0.13E-09   0.50E-05    3  15 1  0.53E-06   0.00   2.50    QN   YES    0:00:00
 
      ************************************************************************************************************************
                                                      Wave function printout:
                       occupation of active orbitals, and spin coupling of open shells (u,d: Spin up or down)
      ************************************************************************************************************************
 
      Note: transformation to natural orbitals
      has been made, which may change the order of the CSFs.
 
      printout of CI-coefficients larger than  0.10 for root  1
      energy=    -398.529132
      conf/sym  111111     Coeff  Weight
             1  222uu0  -0.97712 0.95477
            20  2u2u02   0.10040 0.01008
 
      printout of CI-coefficients larger than  0.10 for root  2
      energy=    -398.503208
      conf/sym  111111     Coeff  Weight
             2  222u0u  -0.96671 0.93453
             5  22uu20   0.13172 0.01735
            19  2u2uud   0.12581 0.01583
            41  202u2u  -0.10372 0.01076
 
      printout of CI-coefficients larger than  0.10 for root  3
      energy=    -398.451020
      conf/sym  111111     Coeff  Weight
             4  22u2u0  -0.20776 0.04317
             6  22u20u  -0.53354 0.28466
            13  2u22u0  -0.79058 0.62501
            15  2u220u  -0.11585 0.01342
 
      printout of CI-coefficients larger than  0.10 for root  4
      energy=    -398.448368
      conf/sym  111111     Coeff  Weight
             4  22u2u0  -0.82006 0.67250
             6  22u20u   0.12870 0.01656
            13  2u22u0   0.19980 0.03992
            15  2u220u  -0.48696 0.23713
 
      Natural orbitals and occupation numbers for root  1
      sym 1:   1.997194   1.976187   1.965364   1.000000   0.998862   0.062392
 
      Natural orbitals and occupation numbers for root  2
      sym 1:   1.998657   1.952372   1.962502   1.000000   0.097103   0.989366
 
      Natural orbitals and occupation numbers for root  3
      sym 1:   1.995492   1.207531   1.752842   1.998887   0.796585   0.248664
 
      Natural orbitals and occupation numbers for root  4
      sym 1:   1.993819   1.787890   1.174383   1.997977   0.828762   0.217169
 
      ************************************************************************************************************************
      *                                                                                                                      *
      *                                                    Final results                                                     *
      *                                                                                                                      *
      ************************************************************************************************************************
 
 
++    Wave function specifications:
      -----------------------------
 
      Number of closed shell electrons          10
      Number of electrons in active shells       8
      Max number of holes in RAS1 space          0
      Max nr of electrons in RAS3 space          0
      Number of inactive orbitals                5
      Number of active orbitals                  6
      Number of secondary orbitals              17
      Spin quantum number                      1.0
      State symmetry                             1
--
 
++    Orbital specifications:
      -----------------------
 
      Symmetry species                           1
                                                 a
      Frozen orbitals                            0
      Inactive orbitals                          5
      Active orbitals                            6
      RAS1 orbitals                              0
      RAS2 orbitals                              6
      RAS3 orbitals                              0
      Secondary orbitals                        17
      Deleted orbitals                           0
      Number of basis functions                 28
--
 
++    CI expansion specifications:
      ----------------------------
 
      Number of CSFs                           105
      Number of determinants                   120
      Number of root(s) required                 4
      CI roots used                              1     2     3     4
      weights                                0.250 0.250 0.250 0.250
      highest root included in the CI            4
      Root passed to geometry opt.               4
--
 
++    Final optimization conditions:
      ------------------------------
 
      Average CI energy                            -398.48293221
      RASSCF energy for state  4                   -398.44836830
      Super-CI energy                                -0.00000000
      RASSCF energy change                           -0.00000000
      Max change in MO coefficients              -0.604E-05
      Max non-diagonal density matrix element     0.497E-05
      Maximum BLB matrix element                  0.528E-06
      (orbital pair   3,  15 in symmetry   1)
      Norm of electronic gradient            0.606E-01
--
 
 
      Final state energy(ies):
      ------------------------
 
::    RASSCF root number  1 Total energy:   -398.52913223
::    RASSCF root number  2 Total energy:   -398.50320833
::    RASSCF root number  3 Total energy:   -398.45101997
::    RASSCF root number  4 Total energy:   -398.44836830
      Von Neumann Entropy (Root   1) =  1.20017
 

      Mulliken population analysis for root number:  1
      -----------------------------------------------
 
 
++    Molecular charges:
      ------------------
 
      Mulliken charges per centre
      ---------------------------
 
                S1      H2      H3    
      Total   15.8784  1.0550  1.0666
 
      N-E      0.1216 -0.0550 -0.0666
 
      Total electronic charge=   18.000000
 
      Total            charge=   -0.000000
--
 
 

      Expectation values of various properties for root number:  1
      -----------------------------------------------------------
 
 
++    Molecular properties:
      ---------------------
 
      Charge (e):
                      =   -0.0000
      Dipole Moment (Debye):
      Origin of the operator (Ang)=    0.0000    0.0000    0.0000
                   X=  8.9395E-03               Y=  5.0459E-02               Z= -1.5016E-01           Total=  1.5866E-01
      Quadrupole Moment (Debye*Ang):
      Origin of the operator (Ang)=   -0.0030    0.0000    0.0709
                  XX= -1.3854E+01              XY= -1.4854E-01              XZ=  1.1161E-01              YY= -1.6637E+01
                  YZ=  1.2198E-01              ZZ= -1.6332E+01
      In traceless form (Debye*Ang)
                  XX=  2.6308E+00              XY= -2.2281E-01              XZ=  1.6742E-01              YY= -1.5438E+00
                  YZ=  1.8297E-01              ZZ= -1.0870E+00
--
 

      Mulliken spin population analysis for root number:  1
      ---------------------------------------------------
 
 
++    Molecular charges:
      ------------------
 
      Mulliken spin population per centre
      ---------------------------
 
                S1      H2      H3    
      Total    1.3459  0.3121  0.3420
 
      Total electronic spin=    2.000000
--
 
 
      Von Neumann Entropy (Root   2) =  1.27591
 

      Mulliken population analysis for root number:  2
      -----------------------------------------------
 
 
[...]
  Sum of SVs (Omega):               0.906484
  Participation ratio (PR_NTO):     1.000045
  Entanglement entropy (S_HE):      0.128744
  Nr of entangled states (Z_HE):    1.093342
  Renormalized S_HE/Z_HE:  0.000380 /  1.000263

CT numbers (Mulliken)
  omega        =     0.9161 (alpha:     0.0096, beta:     0.9065)
 2<alpha|beta> =    -0.0159
  LOC          =     0.0039 (alpha:     0.0001, beta:     0.0038)
  <Phe>        =     0.0179 (alpha:     0.8443, beta:     0.0092)

CT numbers (Lowdin)
  omega        =     0.9161 (alpha:     0.0096, beta:     0.9065)
 2<alpha|beta> =    -0.0159
  LOC          =     0.0019 (alpha:     0.0000, beta:     0.0018)
  <Phe>        =     0.0179 (alpha:     0.8443, beta:     0.0092)

Exciton analysis of the transition density matrix
Total:
  Trans. dipole moment [D]:             0.011795
    Cartesian components [D]:         [  0.011769,  -0.000604,   0.000498]
  Transition <r^2> [a.u.]:              0.103440
    Cartesian components [a.u.]:      [  0.072717,  -0.073562,   0.000844]
  <r_h> [Ang]:                        [ -0.020914,   0.003460,   0.499476]
  <r_e> [Ang]:                        [ -0.001370,   0.000026,   0.033252]
  |<r_e - r_h>| [Ang]:                  0.466646
  Hole size [Ang]:                      1.241905
    Cartesian components [Ang]:       [  0.475363,   0.952488,   0.639629]
  Electron size [Ang]:                  1.143161
    Cartesian components [Ang]:       [  0.874323,   0.519591,   0.521921]
  RMS electron-hole separation [Ang]:   1.752210
    Cartesian components [Ang]:       [  0.995389,   1.084997,   0.949854]
  Covariance(r_h, r_e) [Ang^2]:        -0.001669
  Correlation coefficient:             -0.001175
  Center-of-mass size [Ang]:            0.843476
    Cartesian components [Ang]:       [  0.497595,   0.542496,   0.411763]

Alpha spin:
  Trans. dipole moment [D]:             0.000092
    Cartesian components [D]:         [ -0.000092,   0.000005,  -0.000004]
  Transition <r^2> [a.u.]:              0.007871
    Cartesian components [a.u.]:      [ -0.005570,   0.005562,   0.000008]
  <r_h> [Ang]:                        [ -0.004133,  -0.000342,   0.098149]
  <r_e> [Ang]:                        [ -0.015815,  -0.006509,   0.366841]
  |<r_e - r_h>| [Ang]:                  0.269016
  Hole size [Ang]:                      1.215883
    Cartesian components [Ang]:       [  0.799318,   0.648489,   0.647244]
  Electron size [Ang]:                  1.396609
    Cartesian components [Ang]:       [  0.590306,   0.905423,   0.884457]
  RMS electron-hole separation [Ang]:   1.883480
    Cartesian components [Ang]:       [  0.993777,   1.113720,   1.148710]
  Covariance(r_h, r_e) [Ang^2]:        -0.023120
  Correlation coefficient:             -0.013615
  Center-of-mass size [Ang]:            0.919599
    Cartesian components [Ang]:       [  0.496811,   0.556849,   0.537364]

Beta spin:
  Trans. dipole moment [D]:             0.011887
    Cartesian components [D]:         [  0.011861,  -0.000608,   0.000502]
  Transition <r^2> [a.u.]:              0.111311
    Cartesian components [a.u.]:      [  0.078287,  -0.079124,   0.000836]
  <r_h> [Ang]:                        [ -0.021092,   0.003501,   0.503737]
  <r_e> [Ang]:                        [ -0.001216,   0.000095,   0.029709]
  |<r_e - r_h>| [Ang]:                  0.474456
  Hole size [Ang]:                      1.241481
    Cartesian components [Ang]:       [  0.470725,   0.955197,   0.638195]
  Electron size [Ang]:                  1.139643
    Cartesian components [Ang]:       [  0.876844,   0.513941,   0.515552]
  RMS electron-hole separation [Ang]:   1.750764
    Cartesian components [Ang]:       [  0.995406,   1.084688,   0.947519]
  Covariance(r_h, r_e) [Ang^2]:        -0.000002
  Correlation coefficient:             -0.000001
  Center-of-mass size [Ang]:            0.842623
    Cartesian components [Ang]:       [  0.497604,   0.542341,   0.410208]

  RASSI analysis for state D4
  ---------------------------
Energy: 7.4688 eV

Using spin-traced density matrices ...

NOs
  Occupation of frontier NOs:
     0.0491   0.0627   0.9899   1.9500   1.9704   1.9778
  Number of electrons: 17.000000
  Number of unpaired electrons: n_u =  1.20345, n_u,nl =  1.03854
  NO participation ratio (PR_NO):  1.462678

NDOs
  Leading detachment eigenvalues:
    -0.9509  -0.0924  -0.0246
  Leading attachment eigenvalues:
     0.9688   0.1169   0.0000
  Number of detached / attached electrons: p_D =  1.0856, p_A =  1.0856
  Number of involved orbitals: PR_D =  1.289986, PR_A =  1.237802

Mulliken Population Analysis
    Atom      Charge (e)              h+              e-           Del q
------------------------------------------------------------------------
1 S1            0.796209        0.967659       -0.714279        0.253380
2 H2            0.106259        0.058681       -0.180796       -0.122115
3 H3            0.097532        0.059307       -0.190572       -0.131265
------------------------------------------------------------------------
    Sum:        1.000000        1.085647       -1.085647       -0.000000

Lowdin Population Analysis
    Atom      Charge (e)              h+              e-           Del q
------------------------------------------------------------------------
1 S1            0.913846        0.987319       -0.672826        0.314493
2 H2            0.047643        0.048871       -0.201173       -0.152303
3 H3            0.038511        0.049457       -0.211647       -0.162190
------------------------------------------------------------------------
    Sum:        1.000000        1.085647       -1.085647       -0.000000

Multipole moment analysis of the density matrix
  Molecular charge:                      1.000000
  Number of electrons:                   17.000000
    Center of electronic charge [Ang]: [ -0.005174,  -0.000443,   0.122627]
  Total nuclear charge:                  18.000000
    Center of nuclear charge [Ang]:    [ -0.005882,   0.000000,   0.139960]
  Dipole moment [D]:                     1.417005
    Cartesian components [D]:          [ -0.057839,   0.036197,   1.415362]
  RMS size of the density [Ang]:         0.816515
    Cartesian components [Ang]:        [  0.336007,   0.513653,   0.538477]

Exciton analysis of the difference density matrix
  <r_h> [Ang]:                  [ -0.005724,  -0.000690,   0.135322]
  <r_e> [Ang]:                  [ -0.014821,  -0.007579,   0.342043]
  |<r_e - r_h>| [Ang]:            0.207036
  Hole size [Ang]:                1.204220
    Cartesian components [Ang]: [  0.839587,   0.593710,   0.626696]
  Electron size [Ang]:            1.392506
    Cartesian components [Ang]: [  0.473874,   0.935256,   0.916413]

  RASSI analysis for transiton from state 1 to 4 (D1-D4)
  ------------------------------------------------------
Energy: 7.4688 eV

NTOs (alpha)
  Leading SVs:
     0.8853   0.0000   0.0000
  Sum of SVs (Omega):               0.885312
  Participation ratio (PR_NTO):     1.000045
  Entanglement entropy (S_HE):      0.155920
  Nr of entangled states (Z_HE):    1.114132
  Renormalized S_HE/Z_HE:  0.000378 /  1.000262
NTOs (beta)
  Leading SVs:
     0.0084   0.0023   0.0000
  Sum of SVs (Omega):               0.010710
  Participation ratio (PR_NTO):     1.519991
  Entanglement entropy (S_HE):      0.078220
  Nr of entangled states (Z_HE):    1.055715
  Renormalized S_HE/Z_HE:  0.758375 /  1.691585

CT numbers (Mulliken)
  omega        =     0.8960 (alpha:     0.8853, beta:     0.0107)
 2<alpha|beta> =    -0.0170
  LOC          =     0.0020 (alpha:     0.0020, beta:     0.0000)
  <Phe>        =    -0.0186 (alpha:    -0.0092, beta:    -0.7922)

CT numbers (Lowdin)
  omega        =     0.8960 (alpha:     0.8853, beta:     0.0107)
 2<alpha|beta> =    -0.0170
  LOC          =     0.0012 (alpha:     0.0012, beta:     0.0000)
  <Phe>        =    -0.0186 (alpha:    -0.0092, beta:    -0.7922)

Exciton analysis of the transition density matrix
Total:
  Trans. dipole moment [D]:             0.002033
    Cartesian components [D]:         [ -0.002028,   0.000104,  -0.000086]
  Transition <r^2> [a.u.]:              0.051575
    Cartesian components [a.u.]:      [  0.036540,  -0.036398,  -0.000142]
  <r_h> [Ang]:                        [ -0.001450,   0.000285,   0.035472]
  <r_e> [Ang]:                        [ -0.021930,  -0.012883,   0.503695]
  |<r_e - r_h>| [Ang]:                  0.468856
  Hole size [Ang]:                      1.142384
    Cartesian components [Ang]:       [  0.873908,   0.520373,   0.520132]
  Electron size [Ang]:                  1.455157
    Cartesian components [Ang]:       [  0.470772,   1.000848,   0.945599]
  RMS electron-hole separation [Ang]:   1.909926
    Cartesian components [Ang]:       [  0.992860,   1.128119,   1.178726]
  Covariance(r_h, r_e) [Ang^2]:        -0.002735
  Correlation coefficient:             -0.001645
  Center-of-mass size [Ang]:            0.924264
    Cartesian components [Ang]:       [  0.496320,   0.564023,   0.538338]

Alpha spin:
  Trans. dipole moment [D]:             0.003404
    Cartesian components [D]:         [  0.003397,  -0.000174,   0.000144]
  Transition <r^2> [a.u.]:              0.047496
    Cartesian components [a.u.]:      [  0.033688,  -0.033481,  -0.000207]
  <r_h> [Ang]:                        [ -0.001217,   0.000096,   0.029722]
  <r_e> [Ang]:                        [ -0.022150,  -0.013006,   0.508734]
  |<r_e - r_h>| [Ang]:                  0.479648
  Hole size [Ang]:                      1.139655
    Cartesian components [Ang]:       [  0.876844,   0.513948,   0.515573]
  Electron size [Ang]:                  1.457664
    Cartesian components [Ang]:       [  0.465228,   1.004559,   0.948265]
  RMS electron-hole separation [Ang]:   1.911459
    Cartesian components [Ang]:       [  0.992840,   1.128474,   1.180886]
  Covariance(r_h, r_e) [Ang^2]:        -0.000008
  Correlation coefficient:             -0.000005
  Center-of-mass size [Ang]:            0.925146
    Cartesian components [Ang]:       [  0.496310,   0.564199,   0.539677]

Beta spin:
  Trans. dipole moment [D]:             0.005437
    Cartesian components [D]:         [ -0.005425,   0.000278,  -0.000229]
  Transition <r^2> [a.u.]:              0.004080
    Cartesian components [a.u.]:      [  0.002852,  -0.002917,   0.000065]
  <r_h> [Ang]:                        [ -0.020751,   0.015909,   0.510729]
  <r_e> [Ang]:                        [ -0.003792,  -0.002730,   0.087191]
  |<r_e - r_h>| [Ang]:                  0.424287
  Hole size [Ang]:                      1.261174
    Cartesian components [Ang]:       [  0.581814,   0.905424,   0.657464]
  Electron size [Ang]:                  1.156636
    Cartesian components [Ang]:       [  0.806376,   0.621556,   0.548846]
  RMS electron-hole separation [Ang]:   1.778657
    Cartesian components [Ang]:       [  0.994514,   1.098355,   0.983961]
  Covariance(r_h, r_e) [Ang^2]:        -0.027616
  Correlation coefficient:             -0.018932
  Center-of-mass size [Ang]:            0.847516
    Cartesian components [Ang]:       [  0.497175,   0.549139,   0.411761]

  RASSI analysis for state D5
  ---------------------------
Energy: 8.422 eV

Using spin-traced density matrices ...

NOs
  Occupation of frontier NOs:
     0.1166   0.1541   0.9345   1.9216   1.9296   1.9436
  Number of electrons: 17.000000
  Number of unpaired electrons: n_u =  1.41038, n_u,nl =  1.17372
  NO participation ratio (PR_NO):  2.150621

NDOs
  Leading detachment eigenvalues:
    -0.8459  -0.1591  -0.0585
  Leading attachment eigenvalues:
     0.9162   0.1959   0.0000
  Number of detached / attached electrons: p_D =  1.1120, p_A =  1.1120
  Number of involved orbitals: PR_D =  1.656207, PR_A =  1.408853

Mulliken Population Analysis
    Atom      Charge (e)              h+              e-           Del q
------------------------------------------------------------------------
1 S1            0.854859        0.933868       -0.621838        0.312030
2 H2            0.067285        0.089269       -0.250358       -0.161089
3 H3            0.077856        0.088895       -0.239836       -0.150941
------------------------------------------------------------------------
    Sum:        1.000000        1.112032       -1.112032       -0.000000

Lowdin Population Analysis
    Atom      Charge (e)              h+              e-           Del q
------------------------------------------------------------------------
1 S1            0.932096        0.952710       -0.619968        0.332743
2 H2            0.028310        0.079736       -0.251372       -0.171636
3 H3            0.039594        0.079586       -0.240692       -0.161107
------------------------------------------------------------------------
    Sum:        1.000000        1.112032       -1.112032       -0.000000

Multipole moment analysis of the density matrix
  Molecular charge:                      1.000000
  Number of electrons:                   17.000000
    Center of electronic charge [Ang]: [ -0.005427,   0.000468,   0.129716]
  Total nuclear charge:                  18.000000
    Center of nuclear charge [Ang]:    [ -0.005882,   0.000000,   0.139960]
  Dipole moment [D]:                     0.838159
    Cartesian components [D]:          [ -0.037168,  -0.038175,   0.836464]
  RMS size of the density [Ang]:         0.826317
    Cartesian components [Ang]:        [  0.345770,   0.510474,   0.550145]

Exciton analysis of the difference density matrix
  <r_h> [Ang]:                  [ -0.008451,   0.000601,   0.201377]
  <r_e> [Ang]:                  [ -0.021203,   0.007800,   0.511575]
  |<r_e - r_h>| [Ang]:            0.310543
  Hole size [Ang]:                1.223456
    Cartesian components [Ang]: [  0.799669,   0.645220,   0.664128]
  Electron size [Ang]:            1.456949
    Cartesian components [Ang]: [  0.521648,   0.936137,   0.987032]

  RASSI analysis for transiton from state 1 to 5 (D1-D5)
  ------------------------------------------------------
Energy: 8.422 eV

NTOs (alpha)
  Leading SVs:
     0.8271   0.0001   0.0000
  Sum of SVs (Omega):               0.827227
  Participation ratio (PR_NTO):     1.000307
  Entanglement entropy (S_HE):      0.228160
  Nr of entangled states (Z_HE):    1.171340
  Renormalized S_HE/Z_HE:  0.002169 /  1.001504
NTOs (beta)
  Leading SVs:
     0.0414   0.0021   0.0000
  Sum of SVs (Omega):               0.043560
  Participation ratio (PR_NTO):     1.101752
  Entanglement entropy (S_HE):      0.209131
  Nr of entangled states (Z_HE):    1.155991
  Renormalized S_HE/Z_HE:  0.280131 /  1.214306

CT numbers (Mulliken)
  omega        =     0.8708 (alpha:     0.8272, beta:     0.0436)
 2<alpha|beta> =    -0.0163
  LOC          =     0.0011 (alpha:     0.0011, beta:     0.0000)
  <Phe>        =     0.0426 (alpha:     0.0228, beta:     0.4173)

CT numbers (Lowdin)
  omega        =     0.8708 (alpha:     0.8272, beta:     0.0436)
 2<alpha|beta> =    -0.0163
  LOC          =     0.0006 (alpha:     0.0006, beta:     0.0000)
  <Phe>        =     0.0426 (alpha:     0.0228, beta:     0.4173)

Exciton analysis of the transition density matrix
Total:
  Trans. dipole moment [D]:             0.237426
    Cartesian components [D]:         [  0.236903,  -0.012151,   0.010021]
  Transition <r^2> [a.u.]:              0.016961
    Cartesian components [a.u.]:      [ -0.011790,  -0.000410,   0.012187]
  <r_h> [Ang]:                        [ -0.001746,   0.000027,   0.042141]
  <r_e> [Ang]:                        [ -0.028170,   0.013201,   0.682839]
  |<r_e - r_h>| [Ang]:                  0.641378
  Hole size [Ang]:                      1.133403
    Cartesian components [Ang]:       [  0.863293,   0.517594,   0.520985]
  Electron size [Ang]:                  1.494578
    Cartesian components [Ang]:       [  0.551812,   0.972620,   0.991603]
  RMS electron-hole separation [Ang]:   1.983819
    Cartesian components [Ang]:       [  1.019843,   1.101834,   1.296696]
  Covariance(r_h, r_e) [Ang^2]:        -0.002903
  Correlation coefficient:             -0.001714
  Center-of-mass size [Ang]:            0.937091
    Cartesian components [Ang]:       [  0.514821,   0.550891,   0.556434]

Alpha spin:
  Trans. dipole moment [D]:             0.356934
    Cartesian components [D]:         [ -0.356148,   0.018268,  -0.015064]
  Transition <r^2> [a.u.]:              0.024554
    Cartesian components [a.u.]:      [ -0.017134,  -0.000430,   0.017583]
  <r_h> [Ang]:                        [ -0.001218,   0.000096,   0.029750]
  <r_e> [Ang]:                        [ -0.029543,   0.013862,   0.716100]
  |<r_e - r_h>| [Ang]:                  0.687072
  Hole size [Ang]:                      1.139678
    Cartesian components [Ang]:       [  0.876807,   0.513978,   0.515658]
  Electron size [Ang]:                  1.503880
    Cartesian components [Ang]:       [  0.530378,   0.990837,   0.999298]
  RMS electron-hole separation [Ang]:   2.008024
    Cartesian components [Ang]:       [  1.024893,   1.116297,   1.317436]
  Covariance(r_h, r_e) [Ang^2]:         0.000215
  Correlation coefficient:              0.000125
  Center-of-mass size [Ang]:            0.943524
    Cartesian components [Ang]:       [  0.512489,   0.558107,   0.562237]

Beta spin:
  Trans. dipole moment [D]:             0.594360
    Cartesian components [D]:         [  0.593051,  -0.030419,   0.025085]
  Transition <r^2> [a.u.]:              0.007594
    Cartesian components [a.u.]:      [  0.005344,   0.000019,  -0.005395]
  <r_h> [Ang]:                        [ -0.011765,  -0.001278,   0.277444]
  <r_e> [Ang]:                        [ -0.002097,   0.000647,   0.051193]
  |<r_e - r_h>| [Ang]:                  0.226465
  Hole size [Ang]:                      0.977410
    Cartesian components [Ang]:       [  0.546430,   0.582013,   0.563921]
  Electron size [Ang]:                  1.132778
    Cartesian components [Ang]:       [  0.862716,   0.516298,   0.521865]
  RMS electron-hole separation [Ang]:   1.449342
    Cartesian components [Ang]:       [  0.918684,   0.777677,   0.807360]
  Covariance(r_h, r_e) [Ang^2]:         0.094606
  Correlation coefficient:              0.085447
  Center-of-mass size [Ang]:            0.779058
    Cartesian components [Ang]:       [  0.557190,   0.389175,   0.380808]

===== TheoDORE analysis of CT numbers (Mulliken)===========================================
| State            dE(eV)      f         Om        POSi      POSf      PR        CT        
| -----------------------------------------------------------------------------------------
| D1-D2           3.651046  0.008514  0.946004  1.118540  1.002769  1.134870  0.120673
| D1-D3           4.018324  0.000002  0.916110  1.182741  1.004698  1.217675  0.186447
| D1-D4           7.468752  0.000000  0.896023  1.004941  1.269273  1.329408  0.272757
| D1-D5           8.422011  0.001800  0.870787  1.004234  1.293845  1.358953  0.296493
===========================================================================================


===== TheoDORE analysis of CT numbers (Lowdin)=============================================
| State            dE(eV)      f         Om        POSi      POSf      PR        CT        
| -----------------------------------------------------------------------------------------
| D1-D2           3.651046  0.008514  0.946004  1.096024  1.004854  1.109917  0.099959
| D1-D3           4.018324  0.000002  0.916110  1.173820  1.006754  1.208271  0.178891
| D1-D4           7.468752  0.000000  0.896023  1.006796  1.261959  1.322067  0.266229
| D1-D5           8.422011  0.001800  0.870787  1.009060  1.268486  1.332597  0.274936
===========================================================================================

 Writing fragment Omega matrix to OmFrag.txt
--- Stop Module: wfa at Tue Mar 26 17:55:47 2024 /rc=_RC_ALL_IS_WELL_ ---

>>> COPY MOLCAS.rassi.h5.bak MOLCAS.rassi.h5

.##################.
.# Happy landing! #.
.##################.

    Timing: Wall=31.13 User=27.29 System=3.58
