   This run of MOLCAS is using the pymolcas driver

                             OPE
                             OPE          NMOL  CASOP  ENMOLC A   SO
                 OPE        NMOLC        AS  OP EN  MO LC     AS  OP
                OPENM       OL CA        SO  PE NM  OL CA     SOP EN
                OP EN      MO   LC       AS  OP ENMOL  CASO   PENMOL
                OP  EN     MO   LC       AS  OP EN     MO     LC ASO
               OP   E  NMOL  C  AS       OP  EN MO     LC     AS  OP
               OP  E   NMO   LC AS        OPEN  MO     LCASOP EN   M
               O  PEN   MO  LCA  SO
            OPE   NMO   L   CAS    OP
        OPENMOL  CASOP     ENMOL   CASOPE
     OPENMOLCA   SOPENMOLCASOPEN   MOLCASOPE
    OPENMOLCAS   OP           EN   MOL    CAS
    OPENMOLCAS       OP  ENM        O     LCA
    OPENMOLCAS    OPEN  MOLCASO     P  E  NMO
    OPENMOLCAS     OP               E  N  MOL
    OPENMOLCA   SO           PENM   O  L  CAS    OPEN    MO    LCAS
    OPENMOLCA   SOP           ENM   O  L  CAS   OP  EN  MOLC  AS   O
    OPENMOLCA   SOPE           NM      O  LCA   S      OP  EN MO
    OPENMOLC                AS         O  PEN   M      OL  CA  SOPE
    OPENMO        LCASOPE  NMOL        C  ASO   P      ENMOLC     AS
    OPE     NMO      LCA  SO     P     E   NM   OL  CA SO  PE N   MO
          OPENMOLCA            SOPE   NMO        LCAS  O    P  ENMO
     OPENMOLCASOPENMOLCASOPENMOLCASOPENMOLCA
        OPENMOLCASOPENMOLCASOPENMOLCASOPE
            OPENMOLCASOPENMOLCASOPENM
               OPENMOLCASOPENMOLCA        version: v23.06
                   OPENMOLCASO
                       OPE                tag:

 OpenMolcas is free software; you can redistribute it and/or modify it
 under the terms of the GNU Lesser General Public License version 2.1.
 OpenMolcas is distributed in the hope that it will be useful, but it
 is provided "as is" and without any express or implied warranties.
 For more details see the full text of the license in the file
 LICENSE or in <http://www.gnu.org/licenses/>.

                 Copyright (C) The OpenMolcas Authors
           For the author list and the recommended citation,
                   consult the file CONTRIBUTORS.md

           *************************************************
           * pymolcas version py2.24                       *
           *   build 0399f41f8acc7cc530e7639ac37f2484      *
           *   (after the EMIL interpreter by V. Veryazov) *
           *************************************************

configuration info
------------------
Host name: manganese.itc.univie.ac.at (Linux)
C Compiler ID: GNU
C flags: -std=gnu99
Fortran Compiler ID: Intel
Fortran flags: -fpp -i8 -heap-arrays
Definitions: _MOLCAS_;_I8_;_LINUX_
Parallel: OFF (GA=OFF)


   ---------------------------------------------------------------------------
  |
  |           Project: MOLCAS
  |    Submitted from: /public/manganese/scratch/tmp/sascha.925337/WORK/master
  |      Scratch area: /public/manganese/scratch/tmp/sascha.925337/WORK/master
  |   Save outputs to: WORKDIR
  |            Molcas: /usr/license/openmolcas/v23.06_wfa
  |
  | Scratch area is NOT empty
  |
  |        MOLCASMEM = 10000
  |    MOLCAS_DRIVER = /usr/license/openmolcas/v23.06_wfa/pymolcas
  |    MOLCAS_NPROCS = 1
  |    MOLCAS_SOURCE = /usr/license/openmolcas/v23.06_wfa
  | MOLCAS_STRUCTURE = 0
  |
   ---------------------------------------------------------------------------

++ ---------   Input file   ---------

&GATEWAY
COORD=MOLCAS.xyz
GROUP=NOSYM
BASIS=cc-pvdz
BASLIB
/user/sascha/development/eci/sharc_main/examples/SHARC_MOLCAS/basisset

RICD
CDTHreshold=0.0001

&SEWARD
GRID INPUT
NORO
NOSC
END OF GRID INPUT

&RASSCF
SPIN=1
NACTEL=8 0 0
INACTIVE=5
RAS2=6
ITERATIONS=200,100
CIROOT=10 10 1
ORBLISTING=NOTHING
PRWF=0.1
CMSInter
THRS=0.000000010000 0.000100000000 0.000100000000
CMSI

&MCPDFT
KSDFT=t:pbe
noGrad
MSPDFT
WJOB
CMMI=0
CMSS=Do_Rotate.txt
CMTH=1.0d-10

>>> COPY MOLCAS.JobIph MOLCAS.1.JobIph

&RASSCF
SPIN=2
NACTEL=7 0 0
INACTIVE=5
RAS2=6
ITERATIONS=200,100
CIROOT=5 5 1
ORBLISTING=NOTHING
PRWF=0.1
CMSInter
THRS=0.000000010000 0.000100000000 0.000100000000
CMSI

&MCPDFT
KSDFT=t:pbe
noGrad
MSPDFT
WJOB
CMMI=0
CMSS=Do_Rotate.txt
CMTH=1.0d-10

>>> COPY MOLCAS.JobIph MOLCAS.2.JobIph

&RASSCF
SPIN=3
NACTEL=8 0 0
INACTIVE=5
RAS2=6
ITERATIONS=200,100
CIROOT=4 4 1
ORBLISTING=NOTHING
PRWF=0.1
CMSInter
THRS=0.000000010000 0.000100000000 0.000100000000
CMSI

&MCPDFT
KSDFT=t:pbe
noGrad
MSPDFT
WJOB
CMMI=0
CMSS=Do_Rotate.txt
CMTH=1.0d-10

>>> COPY MOLCAS.JobIph MOLCAS.3.JobIph

>>> COPY MOLCAS.1.JobIph JOB001

>>> COPY MOLCAS.2.JobIph JOB002

>>> COPY MOLCAS.3.JobIph JOB003

&RASSI
NROFJOBIPHS
3 6 5 3
1 2 3 4 5 6
1 2 3 4 5
1 2 3
MEIN
EJOB

>>> COPY MOLCAS.rassi.h5 MOLCAS.rassi.h5.bak

>>> COPY MOLCAS.1.JobIph JOB001

>>> COPY MOLCAS.3.JobIph JOB002

&RASSI
NROFJOBIPHS
2 6 3
1 2 3 4 5 6
1 2 3
MEIN
EJOB
TRD1

&WFA
H5file = MOLCAS.rassi.h5
DoCTnumbers
ATLISTS
2
1 2 *
3 *
PROP Om POSi POSf PR CT *
LOWDIN
NXO
EXCITON
WFALEVEL 4

>>> COPY MOLCAS.2.JobIph JOB001

&RASSI
NROFJOBIPHS
1 5
1 2 3 4 5
MEIN
EJOB
TRD1

&WFA
H5file = MOLCAS.rassi.h5
DoCTnumbers
ATLISTS
2
1 2 *
3 *
PROP Om POSi POSf PR CT *
LOWDIN
NXO
EXCITON
WFALEVEL 4

>>> COPY MOLCAS.rassi.h5.bak MOLCAS.rassi.h5

-- ----------------------------------

--- Start Module: gateway at Wed Mar 27 10:59:23 2024 ---
 
()()()()()()()()()()()()()()()()()()()()()()()()()()()()()()()()()()()()()()()()()()()()()()()()()()

                                              &GATEWAY

                                   only a single process is used
                       available to each process: 10 GB of memory, 1 thread?
                                            pid: 736376
()()()()()()()()()()()()()()()()()()()()()()()()()()()()()()()()()()()()()()()()()()()()()()()()()()
 
 
 
 Basis Set     1 Label: S.CC-PVDZ
 Basis set is read from library:/user/sascha/development/eci/sharc_main/examples/SHARC_MOLCAS/basisset 
 
 
 Basis Set     2 Label: H.CC-PVDZ
 Basis set is read from library:/user/sascha/development/eci/sharc_main/examples/SHARC_MOLCAS/basisset 
 
++    Symmetry information:
      ---------------------
 
                    Character Table for C1 
 
                             E  
                    a        1  x, y, xy, Rz, z, xz, Ry, yz, Rx, I
--
 
 
++    Basis set information:
      ----------------------
 
 
      Basis set label: S.CC-PVDZ.........
 
      Electronic valence basis set:
      ------------------
      Associated Effective Charge  16.000000 au
      Associated Actual Charge     16.000000 au
      Nuclear Model: Point charge
 
      Shell  nPrim  nBasis  Cartesian Spherical Contaminant
         s      12       4        X                  
         p       8       3        X                  
         d       1       1                 X         
 
 
      Basis set label: H.CC-PVDZ.........
 
      Electronic valence basis set:
      ------------------
      Associated Effective Charge   1.000000 au
      Associated Actual Charge      1.000000 au
      Nuclear Model: Point charge
 
      Shell  nPrim  nBasis  Cartesian Spherical Contaminant
         s       4       2        X                  
         p       1       1        X                  
--
 
 
++    Molecular structure info:
      -------------------------
 
                    ************************************************ 
                    **** Cartesian Coordinates / Bohr, Angstrom **** 
                    ************************************************ 
 
     Center  Label                x              y              z                     x              y              z
        1      S1               0.000000       0.000000       0.001589              0.000000       0.000000       0.000841
        2      H2               0.000000       1.842103       2.235421              0.000000       0.974799       1.182934
        3      H3              -0.188973      -1.842103       2.235421             -0.100000      -0.974799       1.182934
 
                    *************************************** 
                    *    InterNuclear Distances / Bohr    * 
                    *************************************** 
 
               1 S1            2 H2            3 H3    
    1 S1       0.000000
    2 H2       2.895401        0.000000
    3 H3       2.901562        3.689050        0.000000
 
                    ******************************************* 
                    *    InterNuclear Distances / Angstrom    * 
                    ******************************************* 
 
               1 S1            2 H2            3 H3    
    1 S1       0.000000
    2 H2       1.532180        0.000000
    3 H3       1.535440        1.952161        0.000000
 
                    ************************************** 
                    *    Valence Bond Angles / Degree    * 
                    ************************************** 
                          Atom centers                 Phi
                      2 H2       1 S1       3 H3        79.04
--
 
 
            Nuclear Potential Energy             11.31134847 au
 
--- Stop Module: gateway at Wed Mar 27 10:59:23 2024 /rc=_RC_ALL_IS_WELL_ ---

--- Start Module: seward at Wed Mar 27 10:59:23 2024 ---
 
()()()()()()()()()()()()()()()()()()()()()()()()()()()()()()()()()()()()()()()()()()()()()()()()()()

                                              &SEWARD

                                   only a single process is used
                       available to each process: 10 GB of memory, 1 thread?
                                            pid: 736388
()()()()()()()()()()()()()()()()()()()()()()()()()()()()()()()()()()()()()()()()()()()()()()()()()()
 
               SEWARD will generate:
                  Multipole Moment integrals up to order  2
                  Kinetic Energy integrals
                  Nuclear Attraction integrals (point charge)
                  One-Electron Hamiltonian integrals
                  Velocity integrals
                  Orbital angular momentum around (-0.0056  0.0000  0.1341 )
                  Velocity quadrupole around (-0.0056  0.0000  0.1341 )
                  RI decomposed two-electron repulsion integrals stored Cholesky style
                   - acCD auxiliary basis
                   - CD Threshold:   0.10E-03
 
                   Integrals are discarded if absolute value <: 0.10E-13
                   Integral cutoff threshold is set to       <: 0.10E-15
 
            Nuclear Potential Energy             11.31134847 au
 
 
      Basis set specifications :
      Symmetry species         a  
      Basis functions           28
 
 
      Input file to MOLDEN was generated!
 
--- Stop Module: seward at Wed Mar 27 10:59:24 2024 /rc=_RC_ALL_IS_WELL_ ---

*** symbolic link created: INPORB -> MOLCAS.GssOrb
--- Start Module: rasscf at Wed Mar 27 10:59:24 2024 ---
 
()()()()()()()()()()()()()()()()()()()()()()()()()()()()()()()()()()()()()()()()()()()()()()()()()()

                                              &RASSCF

                                   only a single process is used
                       available to each process: 10 GB of memory, 1 thread?
                                            pid: 736397
()()()()()()()()()()()()()()()()()()()()()()()()()()()()()()()()()()()()()()()()()()()()()()()()()()
 
 
      Header of the ONEINT file:
      --------------------------
      
      Integrals generated by Gateway/Seward, Wed Mar 27 10:59:23 2024
 
 
      OrdInt status: non-squared
 
 
      Cartesian coordinates in Angstrom:
      -----------------------------------------------------
      No.  Label        X            Y            Z        
      -----------------------------------------------------
       1   S1         0.00000000   0.00000000   0.00084100
       2   H2         0.00000000   0.97479900   1.18293400
       3   H3        -0.10000000  -0.97479900   1.18293400
      -----------------------------------------------------
      Nuclear repulsion energy =   11.31134847
 
++    Wave function specifications:
      -----------------------------
 
      Number of closed shell electrons          10
      Number of electrons in active shells       8
      Max number of holes in RAS1 space          0
      Max nr of electrons in RAS3 space          0
      Number of inactive orbitals                5
      Number of active orbitals                  6
      Number of secondary orbitals              17
      Spin quantum number                      0.0
      State symmetry                             1
--
 
++    Orbital specifications:
      -----------------------
 
      Symmetry species                           1
                                                 a
      Frozen orbitals                            0
      Inactive orbitals                          5
      Active orbitals                            6
      RAS1 orbitals                              0
      RAS2 orbitals                              6
      RAS3 orbitals                              0
      Secondary orbitals                        17
      Deleted orbitals                           0
      Number of basis functions                 28
--
 
++    CI expansion specifications:
      ----------------------------
 
      Number of CSFs                           105
      Number of determinants                   120
      Number of root(s) required                10
      Root chosen for geometry opt.             10
      CI roots used                              1     2     3     4     5     6     7     8     9    10
      weights                                0.100 0.100 0.100 0.100 0.100 0.100 0.100 0.100 0.100 0.100
      highest root included in the CI           10
      max. size of the explicit Hamiltonian    105
--
 
++    Optimization specifications:
      ----------------------------
 
      RASSCF algorithm: LK RI/DF
      Maximum number of macro iterations       200
      Maximum number of SX iterations          100
      Threshold for RASSCF energy            0.100E-07
      Threshold for max MO rotation          0.100E-03
      Threshold for max BLB element          0.100E-03
      Level shift parameter                  0.500E+00
      Make Quasi-Newton update
--
 
      Orbitals from runfile: guessorb orbitals
      The MO-coefficients are taken from guessorb on runfile
 
      Total molecular charge    0.00
 
      ************************************************************************************************************************
      *                                                                                                                      *
      *                                            Wave function control section                                             *
      *                                                                                                                      *
      ************************************************************************************************************************
 
 
                                         RASSCF iterations: Energy and convergence statistics
                                         ----------------------------------------------------
 
      Iter CI   SX   CI       RASSCF       Energy    max ROT     max BLB   max BLB  Level Ln srch  Step   QN   Walltime
          iter iter root      energy       change     param      element    value   shift minimum  type update hh:mm:ss
 Nr of preliminary CI iterations:   1
        1   1   79    0  -398.26969976    0.00E+00   0.14E+00*   7  18 1  0.14E+00*  0.00   0.00    SX    NO    0:00:00
        2   1   31    0  -398.34815254   -0.78E-01* -0.67E-01*  11  13 1 -0.31E-01*  0.00   0.00    SX    NO    0:00:00
        3   1   14    0  -398.35517623   -0.70E-02*  0.27E-01*  11  13 1 -0.12E-01*  0.00   0.00    SX    NO    0:00:00
        4   1   14    0  -398.35608083   -0.90E-03*  0.12E-01*  11  13 1 -0.50E-02*  0.00   0.00    SX    NO    0:00:00
        5   1   13    0  -398.35622120   -0.14E-03*  0.76E-02*  11  13 1 -0.20E-02*  0.00   1.67    LS   YES    0:00:00
        6   1   11    0  -398.35624821   -0.27E-04*  0.36E-03*   6  13 1 -0.29E-03*  0.00   1.02    QN   YES    0:00:00
        7   1    9    0  -398.35624859   -0.38E-06* -0.12E-03*   7  12 1  0.50E-04   0.00   1.13    QN   YES    0:00:00
        8   1    6    0  -398.35624861   -0.25E-07*  0.17E-04   10  18 1  0.10E-04   0.00   1.06    QN   YES    0:00:00
        9   1    5    0  -398.35624861   -0.51E-09   0.34E-05    6  13 1  0.23E-05   0.00   1.19    QN   YES    0:00:00
      Convergence after  9 iterations
       10   1    5    0  -398.35624861   -0.27E-10   0.34E-05    7  18 1  0.22E-06   0.00   1.19    QN   YES    0:00:00
 
 
    CMS INTERMEDIATE-STATE OPTIMIZATION
     START MATRX           XMS INTERMEDIATE STATES
     OPT ALGO                               NEWTON
     Q_a-a THRESHOLD                      1.00E-08
     GRAD  THRESHOLD                      1.00E-10
     MAX CYCLES                                100
     MIN CYCLES                                  5
 =======================================================================
      Cycle       Q_a-a        Difference  # Pos.     Largest    Step
                                           Hessian    Gradient   Scaled
 -----------------------------------------------------------------------
         0    131.12192267     0.00E+000      0     0.0000E+000   1.0
         1    131.15617423     3.43E-002     18     1.3225E-001   1.0
         2    131.23015605     7.40E-002     16     1.2271E-001   1.0
         3    131.16821015    -6.19E-002     14     9.2231E-002   1.0
         4    131.05042425    -1.18E-001     15     8.5707E-002   1.0
         5    131.02659580    -2.38E-002     21     1.1822E-001   1.0
         6    131.12581196     9.92E-002     22     6.5935E-002   1.0
         7    131.19681539     7.10E-002     17     7.4199E-002   1E-1
         8    131.26640994     6.96E-002     13     1.1429E-001   1E-1
         9    131.29654796     3.01E-002      9     5.9137E-002   1E-1
        10    131.31996106     2.34E-002      8     6.0954E-002   1E-1
        11    131.34527249     2.53E-002      7     4.9478E-002   1E-1
        12    131.35160283     6.33E-003      6     4.8275E-002   1E-1
        13    131.37043047     1.88E-002      6     4.1760E-002   1.0
        14    131.37272433     2.29E-003      5     4.6522E-002   1E-2
        15    131.38640823     1.37E-002      5     4.0475E-002   1E-1
        16    131.39836222     1.20E-002      4     3.4105E-002   1.0
        17    131.40083416     2.47E-003      5     6.5945E-002   1E-2
        18    131.41290453     1.21E-002      4     6.1431E-002   1E-1
        19    131.41701140     4.11E-003      3     4.9767E-002   1.0
        20    131.42019031     3.18E-003      3     5.1527E-002   1.0
        21    131.43701483     1.68E-002      2     9.7915E-002   1.0
        22    131.44407458     7.06E-003      2     2.0553E-002   1.0
        23    131.44661306     2.54E-003      2     1.5119E-002   1E-1
        24    131.44947360     2.86E-003      1     1.4982E-002   1E-1
        25    131.45101101     1.54E-003      0     1.1432E-002   1.0
        26    131.45129338     2.82E-004      0     6.2729E-003   1.0
        27    131.45152043     2.27E-004      0     2.8845E-003   1.0
        28    131.45153580     1.54E-005      0     7.8550E-004   1.0
        29    131.45153583     2.80E-008      0     4.7779E-005   1.0
        30    131.45153583    -1.42E-013      0     7.5417E-008   1.0
        31    131.45153583    -8.53E-014      0     2.4862E-013   1.0
    CONVERGENCE REACHED
 =======================================================================
 
 =======================================================================
 
           Do_Rotate.txt is found in scratch directory.
           Following properties are for CMS intermediate states.
 
 =======================================================================
 
      ************************************************************************************************************************
                                                      Wave function printout:
                       occupation of active orbitals, and spin coupling of open shells (u,d: Spin up or down)
      ************************************************************************************************************************
 
      Note: transformation to natural orbitals
      has been made, which may change the order of the CSFs.
 
      printout of CI-coefficients larger than  0.10 for root  1
      energy=    -398.251440
      conf/sym  111111     Coeff  Weight
             2  222ud0  -0.20051 0.04020
             3  222020   0.23143 0.05356
             4  222u0d  -0.21240 0.04511
             6  222002  -0.16493 0.02720
             7  22u2d0   0.16155 0.02610
             8  22ud20  -0.43611 0.19019
             9  22u20d   0.15308 0.02343
            11  22uudd  -0.27755 0.07704
            13  22ud02   0.33607 0.11294
            15  2u22d0  -0.15309 0.02344
            16  2u2d20   0.37506 0.14067
            17  2u220d  -0.16926 0.02865
            19  2u2udd   0.28760 0.08271
            21  2u2d02  -0.28816 0.08304
 
      printout of CI-coefficients larger than  0.10 for root  2
      energy=    -398.395249
      conf/sym  111111     Coeff  Weight
             1  222200  -0.42941 0.18439
             9  22u20d   0.63878 0.40804
            15  2u22d0   0.58081 0.33734
            67  2uu2dd   0.13180 0.01737
            82  20u22d   0.12299 0.01513
 
      printout of CI-coefficients larger than  0.10 for root  3
      energy=    -398.265311
      conf/sym  111111     Coeff  Weight
             2  222ud0   0.19952 0.03981
             3  222020   0.72059 0.51925
             6  222002  -0.49016 0.24026
            11  22uudd   0.17088 0.02920
            12  22u02d   0.10773 0.01161
            16  2u2d20  -0.25441 0.06472
            21  2u2d02   0.20398 0.04161
            22  2u20d2   0.16133 0.02603
 
      printout of CI-coefficients larger than  0.10 for root  4
      energy=    -398.337589
      conf/sym  111111     Coeff  Weight
             7  22u2d0   0.36569 0.13373
             8  22ud20   0.15324 0.02348
             9  22u20d  -0.43478 0.18903
            13  22ud02  -0.11669 0.01362
            15  2u22d0   0.45671 0.20859
            16  2u2d20   0.14737 0.02172
            17  2u220d  -0.51467 0.26489
            19  2u2udd  -0.11015 0.01213
            21  2u2d02  -0.11453 0.01312
            31  220220  -0.10896 0.01187
            37  2ud220  -0.11826 0.01399
            40  2ud202   0.12388 0.01535
            52  202202   0.10876 0.01183
 
      printout of CI-coefficients larger than  0.10 for root  5
      energy=    -398.338112
      conf/sym  111111     Coeff  Weight
             7  22u2d0  -0.39353 0.15487
             8  22ud20  -0.16044 0.02574
             9  22u20d  -0.46323 0.21458
            11  22uudd  -0.10096 0.01019
            13  22ud02   0.12241 0.01498
            15  2u22d0   0.43681 0.19080
            16  2u2d20   0.13737 0.01887
            17  2u220d   0.48806 0.23820
            19  2u2udd   0.10392 0.01080
            21  2u2d02  -0.10659 0.01136
            31  220220  -0.11889 0.01413
            37  2ud220   0.11274 0.01271
            40  2ud202  -0.13033 0.01699
 
      printout of CI-coefficients larger than  0.10 for root  6
      energy=    -398.397795
      conf/sym  111111     Coeff  Weight
             1  222200   0.61631 0.37984
             7  22u2d0  -0.55730 0.31058
             9  22u20d   0.18033 0.03252
            15  2u22d0   0.20295 0.04119
            17  2u220d  -0.42463 0.18031
            49  202220  -0.11630 0.01353
 
      printout of CI-coefficients larger than  0.10 for root  7
      energy=    -398.464004
      conf/sym  111111     Coeff  Weight
             2  222ud0  -0.64170 0.41178
             4  222u0d  -0.64041 0.41012
            11  22uudd   0.19452 0.03784
            13  22ud02  -0.14369 0.02065
            16  2u2d20  -0.18429 0.03396
            18  2u2dud  -0.11886 0.01413
            19  2u2udd  -0.17712 0.03137
 
      printout of CI-coefficients larger than  0.10 for root  8
      energy=    -398.398030
      conf/sym  111111     Coeff  Weight
             1  222200  -0.61845 0.38248
             7  22u2d0  -0.54129 0.29300
             9  22u20d  -0.15719 0.02471
            15  2u22d0  -0.23966 0.05744
            17  2u220d  -0.43163 0.18630
            49  202220   0.11848 0.01404
 
      printout of CI-coefficients larger than  0.10 for root  9
      energy=    -398.462378
      conf/sym  111111     Coeff  Weight
             2  222ud0  -0.63889 0.40818
             4  222u0d   0.64069 0.41048
            11  22uudd   0.18577 0.03451
            13  22ud02   0.14227 0.02024
            16  2u2d20  -0.18990 0.03606
            18  2u2dud   0.11673 0.01363
            19  2u2udd   0.19026 0.03620
            51  202u2d   0.10120 0.01024
 
      printout of CI-coefficients larger than  0.10 for root 10
      energy=    -398.252578
      conf/sym  111111     Coeff  Weight
             2  222ud0  -0.20317 0.04128
             3  222020   0.23236 0.05399
             4  222u0d   0.21547 0.04643
             6  222002  -0.16555 0.02741
             7  22u2d0  -0.15273 0.02333
             8  22ud20   0.41247 0.17013
             9  22u20d   0.14467 0.02093
            11  22uudd  -0.25874 0.06695
            13  22ud02  -0.31745 0.10077
            15  2u22d0  -0.16309 0.02660
            16  2u2d20   0.39849 0.15879
            17  2u220d   0.17930 0.03215
            19  2u2udd  -0.30166 0.09100
            21  2u2d02  -0.30726 0.09441
 
      Natural orbitals and occupation numbers for root  1
      sym 1:   1.991211   1.994314   1.680414   0.328938   1.116474   0.888650
 
      Natural orbitals and occupation numbers for root  2
      sym 1:   1.994158   1.749852   1.643583   1.998861   0.259304   0.354241
 
      Natural orbitals and occupation numbers for root  3
      sym 1:   1.986412   1.968558   1.960775   0.093482   1.331239   0.659533
 
      Natural orbitals and occupation numbers for root  4
      sym 1:   1.988810   1.047522   1.990682   1.952117   0.057246   0.963624
 
      Natural orbitals and occupation numbers for root  5
      sym 1:   1.988892   1.047670   1.990516   1.952612   0.056716   0.963594
 
      Natural orbitals and occupation numbers for root  6
      sym 1:   1.994574   1.925501   1.740852   1.996723   0.275660   0.066689
 
      Natural orbitals and occupation numbers for root  7
      sym 1:   1.998862   1.851525   1.998017   1.009820   0.990187   0.151590
 
      Natural orbitals and occupation numbers for root  8
      sym 1:   1.994660   1.927821   1.740254   1.996759   0.275893   0.064613
 
      Natural orbitals and occupation numbers for root  9
      sym 1:   1.998867   1.847826   1.998014   1.009813   0.990180   0.155300
 
      Natural orbitals and occupation numbers for root 10
      sym 1:   1.991163   1.685413   1.994374   0.323847   1.117206   0.887998
 
      ************************************************************************************************************************
      *                                                                                                                      *
      *                                                    Final results                                                     *
      *                                                                                                                      *
      ************************************************************************************************************************
 
 
++    Wave function specifications:
      -----------------------------
 
      Number of closed shell electrons          10
      Number of electrons in active shells       8
      Max number of holes in RAS1 space          0
      Max nr of electrons in RAS3 space          0
      Number of inactive orbitals                5
      Number of active orbitals                  6
      Number of secondary orbitals              17
      Spin quantum number                      0.0
      State symmetry                             1
--
 
++    Orbital specifications:
      -----------------------
 
      Symmetry species                           1
                                                 a
      Frozen orbitals                            0
      Inactive orbitals                          5
      Active orbitals                            6
      RAS1 orbitals                              0
      RAS2 orbitals                              6
      RAS3 orbitals                              0
      Secondary orbitals                        17
      Deleted orbitals                           0
      Number of basis functions                 28
--
 
++    CI expansion specifications:
      ----------------------------
 
      Number of CSFs                           105
      Number of determinants                   120
      Number of root(s) required                10
      CI roots used                              1     2     3     4     5     6     7     8     9    10
      weights                                0.100 0.100 0.100 0.100 0.100 0.100 0.100 0.100 0.100 0.100
      highest root included in the CI           10
      Root passed to geometry opt.              10
--
 
++    Final optimization conditions:
      ------------------------------
 
      Average CI energy                            -398.35624861
      RASSCF energy for state 10                   -398.25257839
      Super-CI energy                                -0.00000000
      RASSCF energy change                           -0.00000000
      Max change in MO coefficients               0.569E-05
      Max non-diagonal density matrix element     0.337E-05
      Maximum BLB matrix element                  0.221E-06
      (orbital pair   7,  18 in symmetry   1)
      Norm of electronic gradient            0.100E+00
--
 
 
      Final state energy(ies):
      ------------------------
 
::    RASSCF root number  1 Total energy:   -398.25144029
::    RASSCF root number  2 Total energy:   -398.39524888
::    RASSCF root number  3 Total energy:   -398.26531083
::    RASSCF root number  4 Total energy:   -398.33758911
::    RASSCF root number  5 Total energy:   -398.33811201
::    RASSCF root number  6 Total energy:   -398.39779519
::    RASSCF root number  7 Total energy:   -398.46400381
::    RASSCF root number  8 Total energy:   -398.39802955
::    RASSCF root number  9 Total energy:   -398.46237807
::    RASSCF root number 10 Total energy:   -398.25257839
      Von Neumann Entropy (Root   1) =  1.63927
 

      Mulliken population analysis for root number:  1
      -----------------------------------------------
 
 
++    Molecular charges:
      ------------------
 
      Mulliken charges per centre
      ---------------------------
 
                S1      H2      H3    
      Total   15.7418  1.0057  1.2525
 
      N-E      0.2582 -0.0057 -0.2525
 
      Total electronic charge=   18.000000
 
      Total            charge=    0.000000
--
 
 

      Expectation values of various properties for root number:  1
      -----------------------------------------------------------
 
 
++    Molecular properties:
      ---------------------
 
      Charge (e):
                      =    0.0000
      Dipole Moment (Debye):
      Origin of the operator (Ang)=    0.0000    0.0000    0.0000
                   X= -9.2103E-02               Y=  8.5263E-01               Z= -1.5106E+00           Total=  1.7371E+00
      Quadrupole Moment (Debye*Ang):
      Origin of the operator (Ang)=   -0.0030    0.0000    0.0709
                  XX= -1.4505E+01              XY=  7.3846E-01              XZ=  1.2943E+00              YY= -1.8797E+01
                  YZ=  2.5077E+00              ZZ= -1.9581E+01
      In traceless form (Debye*Ang)
                  XX=  4.6843E+00              XY=  1.1077E+00              XZ=  1.9414E+00              YY= -1.7547E+00
                  YZ=  3.7616E+00              ZZ= -2.9296E+00
--
 
      Von Neumann Entropy (Root   2) =  1.23081
 

      Mulliken population analysis for root number:  2
      -----------------------------------------------
 
 
++    Molecular charges:
      ------------------
 
      Mulliken charges per centre
      ---------------------------
 
                S1      H2      H3    
      Total   15.2608  1.3719  1.3673
 
      N-E      0.7392 -0.3719 -0.3673
 
      Total electronic charge=   18.000000
 
      Total            charge=   -0.000000
--
 
 

      Expectation values of various properties for root number:  2
      -----------------------------------------------------------
 
 
++    Molecular properties:
      ---------------------
 
      Charge (e):
                      =   -0.0000
      Dipole Moment (Debye):
      Origin of the operator (Ang)=    0.0000    0.0000    0.0000
                   X=  1.8882E-01               Y= -2.2807E-02               Z= -4.4912E+00           Total=  4.4952E+00
      Quadrupole Moment (Debye*Ang):
      Origin of the operator (Ang)=   -0.0030    0.0000    0.0709
                  XX= -1.6995E+01              XY= -1.3491E-02              XZ=  7.2002E-02              YY= -1.7346E+01
                  YZ= -2.2895E-02              ZZ= -1.8722E+01
      In traceless form (Debye*Ang)
                  XX=  1.0390E+00              XY= -2.0236E-02              XZ=  1.0800E-01              YY=  5.1288E-01
                  YZ= -3.4343E-02              ZZ= -1.5519E+00
--
 
      Von Neumann Entropy (Root   3) =  1.18550
 

      Mulliken population analysis for root number:  3
      -----------------------------------------------
 
 
++    Molecular charges:
      ------------------
 
      Mulliken charges per centre
      ---------------------------
 
                S1      H2      H3    
      Total   15.5836  1.2091  1.2073
 
      N-E      0.4164 -0.2091 -0.2073
 
      Total electronic charge=   18.000000
 
      Total            charge=   -0.000000
--
 
 

      Expectation values of various properties for root number:  3
      -----------------------------------------------------------
 
 
++    Molecular properties:
      ---------------------
 
      Charge (e):
                      =   -0.0000
      Dipole Moment (Debye):
      Origin of the operator (Ang)=    0.0000    0.0000    0.0000
                   X=  8.7920E-02               Y= -6.7017E-03               Z= -2.0590E+00           Total=  2.0609E+00
      Quadrupole Moment (Debye*Ang):
      Origin of the operator (Ang)=   -0.0030    0.0000    0.0709
                  XX= -1.2325E+01              XY= -1.5324E+00              XZ=  3.9269E-01              YY= -2.0096E+01
                  YZ= -7.5944E-02              ZZ= -2.1561E+01
      In traceless form (Debye*Ang)
                  XX=  8.5037E+00              XY= -2.2986E+00              XZ=  5.8904E-01              YY= -3.1535E+00
                  YZ= -1.1392E-01              ZZ= -5.3502E+00
--
 
      Von Neumann Entropy (Root   4) =  1.19187
 

      Mulliken population analysis for root number:  4
      -----------------------------------------------
 
 
++    Molecular charges:
      ------------------
 
      Mulliken charges per centre
      ---------------------------
 
                S1      H2      H3    
      Total   15.9665  1.2728  0.7607
 
      N-E      0.0335 -0.2728  0.2393
 
      Total electronic charge=   18.000000
 
      Total            charge=    0.000000
--
 
 

      Expectation values of various properties for root number:  4
      -----------------------------------------------------------
 
 
++    Molecular properties:
      ---------------------
 
      Charge (e):
                      =    0.0000
      Dipole Moment (Debye):
      Origin of the operator (Ang)=    0.0000    0.0000    0.0000
                   X= -1.3462E-01               Y= -1.9993E+00               Z= -2.7003E-01           Total=  2.0219E+00
      Quadrupole Moment (Debye*Ang):
      Origin of the operator (Ang)=   -0.0030    0.0000    0.0709
                  XX= -1.6783E+01              XY= -2.2722E-01              XZ=  8.1922E-02              YY= -1.5587E+01
                  YZ= -5.6493E+00              ZZ= -1.6543E+01
      In traceless form (Debye*Ang)
                  XX= -7.1812E-01              XY= -3.4083E-01              XZ=  1.2288E-01              YY=  1.0765E+00
                  YZ= -8.4739E+00              ZZ= -3.5838E-01
--
 
      Von Neumann Entropy (Root   5) =  1.19057
 

      Mulliken population analysis for root number:  5
      -----------------------------------------------
 
 
++    Molecular charges:
      ------------------
 
      Mulliken charges per centre
      ---------------------------
 
                S1      H2      H3    
      Total   15.9696  0.7597  1.2707
 
      N-E      0.0304  0.2403 -0.2707
 
      Total electronic charge=   18.000000
 
      Total            charge=   -0.000000
--
 
 

      Expectation values of various properties for root number:  5
      -----------------------------------------------------------
 
 
++    Molecular properties:
      ---------------------
 
      Charge (e):
                      =   -0.0000
      Dipole Moment (Debye):
      Origin of the operator (Ang)=    0.0000    0.0000    0.0000
                   X=  1.5567E-01               Y=  1.9951E+00               Z= -2.5416E-01           Total=  2.0172E+00
      Quadrupole Moment (Debye*Ang):
      Origin of the operator (Ang)=   -0.0030    0.0000    0.0709
                  XX= -1.6769E+01              XY= -6.9537E-01              XZ= -9.5465E-02              YY= -1.5556E+01
                  YZ=  5.6002E+00              ZZ= -1.6562E+01
      In traceless form (Debye*Ang)
                  XX= -7.0982E-01              XY= -1.0431E+00              XZ= -1.4320E-01              YY=  1.1095E+00
                  YZ=  8.4002E+00              ZZ= -3.9967E-01
--
 
      Von Neumann Entropy (Root   6) =  0.79092
 

      Mulliken population analysis for root number:  6
      -----------------------------------------------
 
 
++    Molecular charges:
      ------------------
 
      Mulliken charges per centre
      ---------------------------
 
                S1      H2      H3    
      Total   16.4172  0.4614  1.1214
 
      N-E     -0.4172  0.5386 -0.1214
 
      Total electronic charge=   18.000000
 
      Total            charge=    0.000000
--
 
 

      Expectation values of various properties for root number:  6
      -----------------------------------------------------------
 
 
++    Molecular properties:
      ---------------------
 
      Charge (e):
                      =    0.0000
      Dipole Moment (Debye):
      Origin of the operator (Ang)=    0.0000    0.0000    0.0000
                   X=  4.8580E-02               Y=  3.5521E+00               Z=  3.0106E+00           Total=  4.6566E+00
      Quadrupole Moment (Debye*Ang):
      Origin of the operator (Ang)=   -0.0030    0.0000    0.0709
                  XX= -1.6748E+01              XY=  1.0680E-01              XZ= -9.0422E-02              YY= -1.3330E+01
                  YZ=  1.7620E+00              ZZ= -1.2626E+01
      In traceless form (Debye*Ang)
                  XX= -3.7699E+00              XY=  1.6020E-01              XZ= -1.3563E-01              YY=  1.3570E+00
                  YZ=  2.6430E+00              ZZ=  2.4129E+00
--
 
      Von Neumann Entropy (Root   7) =  1.38729
 

      Mulliken population analysis for root number:  7
      -----------------------------------------------
 
 
++    Molecular charges:
      ------------------
 
      Mulliken charges per centre
      ---------------------------
 
                S1      H2      H3    
      Total   15.8617  0.9305  1.2078
 
      N-E      0.1383  0.0695 -0.2078
 
      Total electronic charge=   18.000000
 
      Total            charge=    0.000000
--
 
 

      Expectation values of various properties for root number:  7
      -----------------------------------------------------------
 
 
++    Molecular properties:
      ---------------------
 
      Charge (e):
                      =    0.0000
      Dipole Moment (Debye):
      Origin of the operator (Ang)=    0.0000    0.0000    0.0000
                   X=  8.2178E-02               Y=  1.3718E+00               Z= -6.7803E-01           Total=  1.5324E+00
      Quadrupole Moment (Debye*Ang):
      Origin of the operator (Ang)=   -0.0030    0.0000    0.0709
                  XX= -1.4243E+01              XY= -2.9292E-01              XZ=  3.4753E-01              YY= -1.7058E+01
                  YZ=  3.7175E+00              ZZ= -1.7780E+01
      In traceless form (Debye*Ang)
                  XX=  3.1758E+00              XY= -4.3938E-01              XZ=  5.2129E-01              YY= -1.0461E+00
                  YZ=  5.5762E+00              ZZ= -2.1297E+00
--
 
      Von Neumann Entropy (Root   8) =  0.78614
 

      Mulliken population analysis for root number:  8
      -----------------------------------------------
 
 
++    Molecular charges:
      ------------------
 
      Mulliken charges per centre
      ---------------------------
 
                S1      H2      H3    
      Total   16.4222  1.1179  0.4599
 
      N-E     -0.4222 -0.1179  0.5401
 
      Total electronic charge=   18.000000
 
      Total            charge=   -0.000000
--
 
 

      Expectation values of various properties for root number:  8
      -----------------------------------------------------------
 
 
++    Molecular properties:
      ---------------------
 
      Charge (e):
                      =   -0.0000
      Dipole Moment (Debye):
      Origin of the operator (Ang)=    0.0000    0.0000    0.0000
                   X= -3.0370E-01               Y= -3.5332E+00               Z=  3.0435E+00           Total=  4.6732E+00
      Quadrupole Moment (Debye*Ang):
      Origin of the operator (Ang)=   -0.0030    0.0000    0.0709
                  XX= -1.6731E+01              XY=  2.5659E-01              XZ= -2.5970E-01              YY= -1.3297E+01
                  YZ= -1.7445E+00              ZZ= -1.2588E+01
      In traceless form (Debye*Ang)
                  XX= -3.7885E+00              XY=  3.8489E-01              XZ= -3.8955E-01              YY=  1.3627E+00
                  YZ= -2.6168E+00              ZZ=  2.4258E+00
--
 
      Von Neumann Entropy (Root   9) =  1.39395
 

      Mulliken population analysis for root number:  9
      -----------------------------------------------
 
 
++    Molecular charges:
      ------------------
 
      Mulliken charges per centre
      ---------------------------
 
                S1      H2      H3    
      Total   15.8599  1.2098  0.9302
 
      N-E      0.1401 -0.2098  0.0698
 
      Total electronic charge=   18.000000
 
      Total            charge=   -0.000000
--
 
 

      Expectation values of various properties for root number:  9
      -----------------------------------------------------------
 
 
++    Molecular properties:
      ---------------------
 
      Charge (e):
                      =   -0.0000
      Dipole Moment (Debye):
      Origin of the operator (Ang)=    0.0000    0.0000    0.0000
                   X= -2.5492E-02               Y= -1.3770E+00               Z= -6.8810E-01           Total=  1.5395E+00
      Quadrupole Moment (Debye*Ang):
      Origin of the operator (Ang)=   -0.0030    0.0000    0.0709
                  XX= -1.4214E+01              XY=  2.0090E-02              XZ= -4.4358E-02              YY= -1.7086E+01
                  YZ= -3.7388E+00              ZZ= -1.7818E+01
      In traceless form (Debye*Ang)
                  XX=  3.2377E+00              XY=  3.0135E-02              XZ= -6.6537E-02              YY= -1.0691E+00
                  YZ= -5.6083E+00              ZZ= -2.1685E+00
--
 
      Von Neumann Entropy (Root  10) =  1.63316
 

      Mulliken population analysis for root number: 10
      -----------------------------------------------
 
 
++    Molecular charges:
      ------------------
 
      Mulliken charges per centre
      ---------------------------
 
                S1      H2      H3    
      Total   15.7410  1.2546  1.0044
 
      N-E      0.2590 -0.2546 -0.0044
 
      Total electronic charge=   18.000000
 
      Total            charge=    0.000000
--
 
 

      Expectation values of various properties for root number: 10
      -----------------------------------------------------------
 
 
++    Molecular properties:
      ---------------------
 
      Charge (e):
                      =    0.0000
      Dipole Moment (Debye):
      Origin of the operator (Ang)=    0.0000    0.0000    0.0000
                   X=  2.1893E-01               Y= -8.6728E-01               Z= -1.4921E+00           Total=  1.7397E+00
      Quadrupole Moment (Debye*Ang):
      Origin of the operator (Ang)=   -0.0030    0.0000    0.0709
                  XX= -1.4323E+01              XY=  9.5780E-01              XZ= -8.5983E-01              YY= -1.8794E+01
                  YZ= -2.4667E+00              ZZ= -1.9744E+01
      In traceless form (Debye*Ang)
                  XX=  4.9466E+00              XY=  1.4367E+00              XZ= -1.2897E+00              YY= -1.7607E+00
                  YZ= -3.7000E+00              ZZ= -3.1859E+00
--
 
 
      Input file to MOLDEN was generated!
 
 
      Input file to MOLDEN was generated!
 
 
      Input file to MOLDEN was generated!
 
 
      Input file to MOLDEN was generated!
 
 
      Input file to MOLDEN was generated!
 
 
      Input file to MOLDEN was generated!
 
 
      Input file to MOLDEN was generated!
 
 
      Input file to MOLDEN was generated!
 
 
      Input file to MOLDEN was generated!
 
 
      Input file to MOLDEN was generated!
 
 
      Input file to MOLDEN was generated!
 
      Average orbitals are written to the RASORB file
      Natural orbitals for root   1 are written to the RASORB.1 file
      Natural orbitals for root   2 are written to the RASORB.2 file
      Natural orbitals for root   3 are written to the RASORB.3 file
      Natural orbitals for root   4 are written to the RASORB.4 file
      Natural orbitals for root   5 are written to the RASORB.5 file
      Natural orbitals for root   6 are written to the RASORB.6 file
      Natural orbitals for root   7 are written to the RASORB.7 file
      Natural orbitals for root   8 are written to the RASORB.8 file
      Natural orbitals for root   9 are written to the RASORB.9 file
      Natural orbitals for root  10 are written to the RASORB.10 file
      Spin density orbitals for root   1 are written to the SPDORB.1 file
      Spin density orbitals for root   2 are written to the SPDORB.2 file
      Spin density orbitals for root   3 are written to the SPDORB.3 file
      Spin density orbitals for root   4 are written to the SPDORB.4 file
      Spin density orbitals for root   5 are written to the SPDORB.5 file
      Spin density orbitals for root   6 are written to the SPDORB.6 file
      Spin density orbitals for root   7 are written to the SPDORB.7 file
      Spin density orbitals for root   8 are written to the SPDORB.8 file
      Spin density orbitals for root   9 are written to the SPDORB.9 file
      Spin density orbitals for root  10 are written to the SPDORB.10 file
 
 ###############################################################################
 ###############################################################################
 ###                                                                         ###
 ###                                                                         ###
 ###    WARNING: RunFile label BirthCertificate                              ###
 ###    was used       51 times                                              ###
 ###                                                                         ###
 ###                                                                         ###
 ###############################################################################
 ###############################################################################
 ###############################################################################
 ###############################################################################
 ###                                                                         ###
 ###                                                                         ###
 ###    WARNING: RunFile label nBas                                          ###
 ###    was used       59 times                                              ###
 ###                                                                         ###
 ###                                                                         ###
 ###############################################################################
 ###############################################################################
--- Stop Module: rasscf at Wed Mar 27 10:59:29 2024 /rc=_RC_ALL_IS_WELL_ ---
--- Module rasscf spent 5 seconds ---

*** symbolic link created: INPORB -> MOLCAS.RasOrb
--- Start Module: mcpdft at Wed Mar 27 10:59:29 2024 ---
 
()()()()()()()()()()()()()()()()()()()()()()()()()()()()()()()()()()()()()()()()()()()()()()()()()()

                                              &MCPDFT

                                   only a single process is used
                       available to each process: 10 GB of memory, 1 thread?
                                            pid: 736935
()()()()()()()()()()()()()()()()()()()()()()()()()()()()()()()()()()()()()()()()()()()()()()()()()()
 
 
      Header of the ONEINT file:
      --------------------------
      
      Integrals generated by Gateway/Seward, Wed Mar 27 10:59:23 2024
 
 
      OrdInt status: non-squared
 
 
      Cartesian coordinates in Angstrom:
      -----------------------------------------------------
      No.  Label        X            Y            Z        
      -----------------------------------------------------
       1   S1         0.00000000   0.00000000   0.00084100
       2   H2         0.00000000   0.97479900   1.18293400
       3   H3        -0.10000000  -0.97479900   1.18293400
      -----------------------------------------------------
      Nuclear repulsion energy =   11.31134847
 
++    Wave function specifications:
      -----------------------------
 
      Number of closed shell electrons          10
      Number of electrons in active shells       8
      Max number of holes in RAS1 space          0
      Max nr of electrons in RAS3 space          0
      Number of inactive orbitals                5
      Number of active orbitals                  6
      Number of secondary orbitals              17
      Spin quantum number                      0.0
      State symmetry                             1
--
 
++    Orbital specifications:
      -----------------------
 
      Symmetry species                           1
                                                 a
      Frozen orbitals                            0
      Inactive orbitals                          5
      Active orbitals                            6
      RAS1 orbitals                              0
      RAS2 orbitals                              6
      RAS3 orbitals                              0
      Secondary orbitals                        17
      Deleted orbitals                           0
      Number of basis functions                 28
--
 
++    CI expansion specifications:
      ----------------------------
 
      Number of CSFs                             0
      Number of determinants                     0
      Number of root(s) required                10
      Root chosen for geometry opt.             10
      highest root included in the CI           10
--
 
++    Optimization specifications:
      ----------------------------
 
      RASSCF algorithm: LK RI/DF
      This is a MC-PDFT calculation with functional: T:PBE                                                                           
      Exchange scaling factor                0.100E+01
      Correlation scaling factor             0.100E+01
--
      Starting CI array(s) will be read from file
 
 
      Numerical integration parameters
      --------------------------------
      Radial quadrature type:                         MHL       
      Size of radial grid:                            75
      Lebedev angular grid:                           29
      Screening threshold for integral computation:   0.00E+00
      Radial quadrature accuracy:                     1.00E-25
      Maximum batch size:                             128
      AO values are stored on disk
 
      DFT functional specifications
      -----------------------------
      Using Libxc version: 5.2.2
      Please cite the following reference:
      S. Lehtola, C. Steigemann, M. J. Oliveira, and M. A. Marques, SoftwareX 7, 1 (2018) doi:10.1016/j.softx.2017.11.002
 
      * Perdew, Burke & Ernzerhof
        - J. P. Perdew, K. Burke, and M. Ernzerhof, Phys. Rev. Lett. 77, 3865 (1996) doi:10.1103/PhysRevLett.77.3865
        - J. P. Perdew, K. Burke, and M. Ernzerhof, Phys. Rev. Lett. 78, 1396 (1997) doi:10.1103/PhysRevLett.78.1396
      * Perdew, Burke & Ernzerhof
        - J. P. Perdew, K. Burke, and M. Ernzerhof, Phys. Rev. Lett. 77, 3865 (1996) doi:10.1103/PhysRevLett.77.3865
        - J. P. Perdew, K. Burke, and M. Ernzerhof, Phys. Rev. Lett. 78, 1396 (1997) doi:10.1103/PhysRevLett.78.1396
 
   File JOBOLD not found -- use JOBIPH.
      The MO-coefficients are taken from the file:
      JOBIPH
      Title:(No title given)                                                        
      ================================================================================
 
      keyword "MSPD" is used and file recording rotated hamiltonian is found. 
 
      Switching calculation to Multi-State Pair-Density Functional Theory (MS-PDFT) 
      calculation.
 
      The MS-PDFT method is CMS-PDFT.
 
      ================================================================================
 

      ********************************************************************************
      ********************************************************************************
      **                      CMS-PDFT INTERMEDIATE STATE 0001                      ** 
      ********************************************************************************
      MCSCF reference energy                                             -398.25144029

      Integrated total density:                                                 18.000
      Integrated alpha density before functional transformation:                 9.000
      Integrated  beta density before functional transformation:                 9.000
      Integrated alpha density  after functional transformation:                10.078
      Integrated  beta density  after functional transformation:                 7.922
      NOTE:
      Densities after transformation are intermediate quantities
      and should not be interpreted as real spin densities

      Exchange energy scaling factor                                          1.000000
      Correlation energy scaling factor                                       1.000000

      Integrated alpha exchange energy                                      -13.143239
      Integrated beta  exchange energy                                      -12.335651
      Integrated  correlation   energy                                       -0.637956

      Nuclear Repulsion energy                                             11.31134847
      Core energy                                                        -360.53573918
      CASSCF contribution energy                                         -372.62830676
      On-top energy                                                       -26.11684650

      Total MC-PDFT energy for intermediate state     1                  -398.74515326

      ********************************************************************************


      ********************************************************************************
      ********************************************************************************
      **                      CMS-PDFT INTERMEDIATE STATE 0002                      ** 
      ********************************************************************************
      MCSCF reference energy                                             -398.39524888

      Integrated total density:                                                 18.000
      Integrated alpha density before functional transformation:                 9.000
      Integrated  beta density before functional transformation:                 9.000
      Integrated alpha density  after functional transformation:                 9.723
      Integrated  beta density  after functional transformation:                 8.277
      NOTE:
      Densities after transformation are intermediate quantities
      and should not be interpreted as real spin densities

      Exchange energy scaling factor                                          1.000000
      Correlation energy scaling factor                                       1.000000

      Integrated alpha exchange energy                                      -12.993877
      Integrated beta  exchange energy                                      -12.411410
      Integrated  correlation   energy                                       -0.644342

      Nuclear Repulsion energy                                             11.31134847
      Core energy                                                        -360.53573918
      CASSCF contribution energy                                         -372.85344887
      On-top energy                                                       -26.04962848

      Total MC-PDFT energy for intermediate state     2                  -398.90307735

      ********************************************************************************


      ********************************************************************************
      ********************************************************************************
      **                      CMS-PDFT INTERMEDIATE STATE 0003                      ** 
      ********************************************************************************
      MCSCF reference energy                                             -398.26531083

      Integrated total density:                                                 18.000
      Integrated alpha density before functional transformation:                 9.000
      Integrated  beta density before functional transformation:                 9.000
      Integrated alpha density  after functional transformation:                10.089
      Integrated  beta density  after functional transformation:                 7.911
      NOTE:
      Densities after transformation are intermediate quantities
      and should not be interpreted as real spin densities

      Exchange energy scaling factor                                          1.000000
      Correlation energy scaling factor                                       1.000000

      Integrated alpha exchange energy                                      -13.161134
      Integrated beta  exchange energy                                      -12.324230
      Integrated  correlation   energy                                       -0.639493

      Nuclear Repulsion energy                                             11.31134847
      Core energy                                                        -360.53573918
      CASSCF contribution energy                                         -372.62957948
      On-top energy                                                       -26.12485577

      Total MC-PDFT energy for intermediate state     3                  -398.75443524

      ********************************************************************************


      ********************************************************************************
      ********************************************************************************
      **                      CMS-PDFT INTERMEDIATE STATE 0004                      ** 
      ********************************************************************************
      MCSCF reference energy                                             -398.33758911

      Integrated total density:                                                 18.000
      Integrated alpha density before functional transformation:                 9.000
      Integrated  beta density before functional transformation:                 9.000
      Integrated alpha density  after functional transformation:                 9.926
      Integrated  beta density  after functional transformation:                 8.074
      NOTE:
      Densities after transformation are intermediate quantities
      and should not be interpreted as real spin densities

      Exchange energy scaling factor                                          1.000000
      Correlation energy scaling factor                                       1.000000

      Integrated alpha exchange energy                                      -13.101068
      Integrated beta  exchange energy                                      -12.389625
      Integrated  correlation   energy                                       -0.646054

      Nuclear Repulsion energy                                             11.31134847
      Core energy                                                        -360.53573918
      CASSCF contribution energy                                         -372.69909439
      On-top energy                                                       -26.13674739

      Total MC-PDFT energy for intermediate state     4                  -398.83584178

      ********************************************************************************


      ********************************************************************************
      ********************************************************************************
      **                      CMS-PDFT INTERMEDIATE STATE 0005                      ** 
      ********************************************************************************
      MCSCF reference energy                                             -398.33811201

      Integrated total density:                                                 18.000
      Integrated alpha density before functional transformation:                 9.000
      Integrated  beta density before functional transformation:                 9.000
      Integrated alpha density  after functional transformation:                 9.926
      Integrated  beta density  after functional transformation:                 8.074
      NOTE:
      Densities after transformation are intermediate quantities
      and should not be interpreted as real spin densities

      Exchange energy scaling factor                                          1.000000
      Correlation energy scaling factor                                       1.000000

      Integrated alpha exchange energy                                      -13.101286
      Integrated beta  exchange energy                                      -12.389654
      Integrated  correlation   energy                                       -0.646125

      Nuclear Repulsion energy                                             11.31134847
      Core energy                                                        -360.53573918
      CASSCF contribution energy                                         -372.69936682
      On-top energy                                                       -26.13706503

      Total MC-PDFT energy for intermediate state     5                  -398.83643186

      ********************************************************************************


      ********************************************************************************
      ********************************************************************************
      **                      CMS-PDFT INTERMEDIATE STATE 0006                      ** 
      ********************************************************************************
      MCSCF reference energy                                             -398.39779519

      Integrated total density:                                                 18.000
      Integrated alpha density before functional transformation:                 9.000
      Integrated  beta density before functional transformation:                 9.000
      Integrated alpha density  after functional transformation:                 9.574
      Integrated  beta density  after functional transformation:                 8.426
      NOTE:
      Densities after transformation are intermediate quantities
      and should not be interpreted as real spin densities

      Exchange energy scaling factor                                          1.000000
      Correlation energy scaling factor                                       1.000000

      Integrated alpha exchange energy                                      -13.012998
      Integrated beta  exchange energy                                      -12.500593
      Integrated  correlation   energy                                       -0.660391

      Nuclear Repulsion energy                                             11.31134847
      Core energy                                                        -360.53573918
      CASSCF contribution energy                                         -372.76332372
      On-top energy                                                       -26.17398238

      Total MC-PDFT energy for intermediate state     6                  -398.93730610

      ********************************************************************************


      ********************************************************************************
      ********************************************************************************
      **                      CMS-PDFT INTERMEDIATE STATE 0007                      ** 
      ********************************************************************************
      MCSCF reference energy                                             -398.46400381

      Integrated total density:                                                 18.000
      Integrated alpha density before functional transformation:                 9.000
      Integrated  beta density before functional transformation:                 9.000
      Integrated alpha density  after functional transformation:                10.065
      Integrated  beta density  after functional transformation:                 7.935
      NOTE:
      Densities after transformation are intermediate quantities
      and should not be interpreted as real spin densities

      Exchange energy scaling factor                                          1.000000
      Correlation energy scaling factor                                       1.000000

      Integrated alpha exchange energy                                      -13.168487
      Integrated beta  exchange energy                                      -12.327028
      Integrated  correlation   energy                                       -0.646224

      Nuclear Repulsion energy                                             11.31134847
      Core energy                                                        -360.53573918
      CASSCF contribution energy                                         -372.81420140
      On-top energy                                                       -26.14173971

      Total MC-PDFT energy for intermediate state     7                  -398.95594111

      ********************************************************************************


      ********************************************************************************
      ********************************************************************************
      **                      CMS-PDFT INTERMEDIATE STATE 0008                      ** 
      ********************************************************************************
      MCSCF reference energy                                             -398.39802955

      Integrated total density:                                                 18.000
      Integrated alpha density before functional transformation:                 9.000
      Integrated  beta density before functional transformation:                 9.000
      Integrated alpha density  after functional transformation:                 9.573
      Integrated  beta density  after functional transformation:                 8.427
      NOTE:
      Densities after transformation are intermediate quantities
      and should not be interpreted as real spin densities

      Exchange energy scaling factor                                          1.000000
      Correlation energy scaling factor                                       1.000000

      Integrated alpha exchange energy                                      -13.013028
      Integrated beta  exchange energy                                      -12.501623
      Integrated  correlation   energy                                       -0.660509

      Nuclear Repulsion energy                                             11.31134847
      Core energy                                                        -360.53573918
      CASSCF contribution energy                                         -372.76265489
      On-top energy                                                       -26.17516005

      Total MC-PDFT energy for intermediate state     8                  -398.93781494

      ********************************************************************************


      ********************************************************************************
      ********************************************************************************
      **                      CMS-PDFT INTERMEDIATE STATE 0009                      ** 
      ********************************************************************************
      MCSCF reference energy                                             -398.46237807

      Integrated total density:                                                 18.000
      Integrated alpha density before functional transformation:                 9.000
      Integrated  beta density before functional transformation:                 9.000
      Integrated alpha density  after functional transformation:                10.067
      Integrated  beta density  after functional transformation:                 7.933
      NOTE:
      Densities after transformation are intermediate quantities
      and should not be interpreted as real spin densities

      Exchange energy scaling factor                                          1.000000
      Correlation energy scaling factor                                       1.000000

      Integrated alpha exchange energy                                      -13.168779
      Integrated beta  exchange energy                                      -12.326189
      Integrated  correlation   energy                                       -0.646156

      Nuclear Repulsion energy                                             11.31134847
      Core energy                                                        -360.53573918
      CASSCF contribution energy                                         -372.81321844
      On-top energy                                                       -26.14112453

      Total MC-PDFT energy for intermediate state     9                  -398.95434297

      ********************************************************************************


      ********************************************************************************
      ********************************************************************************
      **                      CMS-PDFT INTERMEDIATE STATE 0010                      ** 
      ********************************************************************************
      MCSCF reference energy                                             -398.25257839

      Integrated total density:                                                 18.000
      Integrated alpha density before functional transformation:                 9.000
      Integrated  beta density before functional transformation:                 9.000
      Integrated alpha density  after functional transformation:                10.078
      Integrated  beta density  after functional transformation:                 7.922
      NOTE:
      Densities after transformation are intermediate quantities
      and should not be interpreted as real spin densities

      Exchange energy scaling factor                                          1.000000
      Correlation energy scaling factor                                       1.000000

      Integrated alpha exchange energy                                      -13.143513
      Integrated beta  exchange energy                                      -12.335569
      Integrated  correlation   energy                                       -0.638003

      Nuclear Repulsion energy                                             11.31134847
      Core energy                                                        -360.53573918
      CASSCF contribution energy                                         -372.62916246
      On-top energy                                                       -26.11708487

      Total MC-PDFT energy for intermediate state    10                  -398.74624733

      ********************************************************************************

      ********************************************************************************
 
                                  CMS-PDFT FINAL RESULTS
 
      ********************************************************************************
 
      CMS-PDFT Effective Hamiltonian
      (diagonal values increased by   390.00 hartree)
       -8.745153 -0.001551 -0.000281 -0.002277  0.031992 -0.003546 -0.073539  0.007959  0.005554 -0.000359
       -0.001551 -8.903077 -0.002387 -0.005910 -0.006154  0.159478  0.000503 -0.159448  0.000484 -0.001556
       -0.000281 -0.002387 -8.754435 -0.009304 -0.009304 -0.010086  0.033752  0.010154  0.033897  0.000120
       -0.002277 -0.005910 -0.009304 -8.835842 -0.004645  0.018142  0.001632 -0.008695 -0.029508  0.031680
        0.031992 -0.006154 -0.009304 -0.004645 -8.836432  0.008657 -0.029116 -0.018394  0.001598 -0.002231
       -0.003546  0.159478 -0.010086  0.018142  0.008657 -8.937306 -0.002569  0.116920  0.000410 -0.007971
       -0.073539  0.000503  0.033752  0.001632 -0.029116 -0.002569 -8.955941 -0.000376 -0.017716  0.005465
        0.007959 -0.159448  0.010154 -0.008695 -0.018394  0.116920 -0.000376 -8.937815  0.002568  0.003716
        0.005554  0.000484  0.033897 -0.029508  0.001598  0.000410 -0.017716  0.002568 -8.954343 -0.074146
       -0.000359 -0.001556  0.000120  0.031680 -0.002231 -0.007971  0.005465  0.003716 -0.074146 -8.746247
 
      CMS-PDFT Energies:
      ::    CMS-PDFT Root    1   Total energy:     -399.21897989
      ::    CMS-PDFT Root    2   Total energy:     -399.00221251
      ::    CMS-PDFT Root    3   Total energy:     -398.96839197
      ::    CMS-PDFT Root    4   Total energy:     -398.84983331
      ::    CMS-PDFT Root    5   Total energy:     -398.84732080
      ::    CMS-PDFT Root    6   Total energy:     -398.81654821
      ::    CMS-PDFT Root    7   Total energy:     -398.76027640
      ::    CMS-PDFT Root    8   Total energy:     -398.73168413
      ::    CMS-PDFT Root    9   Total energy:     -398.70875854
      ::    CMS-PDFT Root   10   Total energy:     -398.70258619
      CMS-PDFT Eigenvectors:
 
       Intermediate-state Basis
       Root    1      Root    2      Root    3      Root    4      Root    5      Root    6      Root    7      Root    8      Root    9      Root   10
        0.015568      -0.171674       0.217913       0.221285       0.204343      -0.074790      -0.268117       0.197357       0.542635      -0.648994
       -0.580351       0.001596      -0.000021       0.110542      -0.013641       0.002156      -0.450474      -0.669217      -0.001476       0.000158
        0.019652       0.177371       0.003191      -0.131589       0.017648       0.001039      -0.747600       0.465450      -0.417977       0.016111
       -0.050286      -0.072657      -0.097615      -0.587240       0.694338      -0.245182      -0.040617      -0.041586       0.214274       0.215175
       -0.051065      -0.073913       0.094129      -0.739359      -0.530054       0.247405      -0.039805      -0.040114       0.195624      -0.229758
        0.572848      -0.001627       0.013027      -0.038321      -0.254712      -0.657659      -0.213059      -0.356646       0.009506      -0.011417
        0.002194      -0.679622       0.656578       0.008126       0.016612       0.002346      -0.026527       0.015846      -0.210495       0.247798
       -0.573600       0.001421       0.013066      -0.026708      -0.255046      -0.659437       0.209647       0.354996      -0.010333      -0.010462
        0.002146      -0.661669      -0.672320       0.003762      -0.017562      -0.002527      -0.026037       0.015538      -0.232887      -0.233861
        0.015705      -0.169192      -0.225091       0.166530      -0.253325       0.075449      -0.268921       0.198761       0.589844       0.602597
       Reference-state Basis
       Root    1      Root    2      Root    3      Root    4      Root    5      Root    6      Root    7      Root    8      Root    9      Root   10
       -0.999476      -0.000367      -0.000014      -0.002674       0.000387       0.000370      -0.016317      -0.027811       0.000969      -0.000043
       -0.000345       0.999989      -0.000308      -0.003613       0.000395      -0.000005      -0.002450       0.001048       0.001044      -0.000090
       -0.000013       0.000309       0.999972       0.000733       0.006408       0.002512      -0.000044       0.000014       0.000102       0.002826
        0.002869      -0.003639       0.000250      -0.997337       0.070472       0.011303      -0.008671      -0.001348      -0.011198       0.000972
        0.000140      -0.000150      -0.005730       0.066462       0.974667      -0.213227      -0.000802      -0.000221      -0.001073      -0.010363
       -0.000383      -0.000003       0.003812      -0.026072      -0.211844      -0.976914       0.004022      -0.002045       0.000522       0.006737
       -0.007924       0.002573       0.000027      -0.008198       0.002247       0.004276       0.960262      -0.276566       0.035306      -0.001430
        0.031239       0.000343      -0.000000       0.003664      -0.000502       0.000873      -0.276658      -0.960410       0.009094      -0.000314
        0.000998      -0.001179      -0.000102      -0.010832       0.001850       0.000241      -0.031494       0.018525       0.999269      -0.001766
        0.000042      -0.000093       0.002912      -0.001802      -0.011449      -0.004361      -0.001203       0.000652      -0.001814      -0.999917
      ********************************************************************************
 
--- Stop Module: mcpdft at Wed Mar 27 10:59:34 2024 /rc=_RC_ALL_IS_WELL_ ---
--- Module mcpdft spent 4 seconds ---

>>> COPY MOLCAS.JobIph MOLCAS.1.JobIph

*** symbolic link created: INPORB -> MOLCAS.RasOrb
--- Start Module: rasscf at Wed Mar 27 10:59:34 2024 ---
 
[...]
  Sum of SVs (Omega):               0.907070
  Participation ratio (PR_NTO):     1.000042
  Entanglement entropy (S_HE):      0.127959
  Nr of entangled states (Z_HE):    1.092747
  Renormalized S_HE/Z_HE:  0.000354 /  1.000246

CT numbers (Mulliken)
  omega        =     0.9161 (alpha:     0.0091, beta:     0.9071)
 2<alpha|beta> =    -0.0158
  LOC          =     0.0039 (alpha:     0.0000, beta:     0.0038)
  <Phe>        =     0.0173 (alpha:     0.8614, beta:     0.0088)

CT numbers (Lowdin)
  omega        =     0.9161 (alpha:     0.0091, beta:     0.9071)
 2<alpha|beta> =    -0.0158
  LOC          =     0.0019 (alpha:     0.0000, beta:     0.0018)
  <Phe>        =     0.0173 (alpha:     0.8614, beta:     0.0088)

Exciton analysis of the transition density matrix
Total:
  Trans. dipole moment [D]:             0.011350
    Cartesian components [D]:         [  0.011325,  -0.000581,   0.000479]
  Transition <r^2> [a.u.]:              0.103644
    Cartesian components [a.u.]:      [  0.072880,  -0.073688,   0.000807]
  <r_h> [Ang]:                        [ -0.020939,   0.003252,   0.499813]
  <r_e> [Ang]:                        [ -0.001357,   0.000035,   0.032976]
  |<r_e - r_h>| [Ang]:                  0.467259
  Hole size [Ang]:                      1.241919
    Cartesian components [Ang]:       [  0.475018,   0.952707,   0.639586]
  Electron size [Ang]:                  1.142892
    Cartesian components [Ang]:       [  0.874512,   0.519166,   0.521439]
  RMS electron-hole separation [Ang]:   1.752135
    Cartesian components [Ang]:       [  0.995391,   1.084985,   0.949726]
  Covariance(r_h, r_e) [Ang^2]:        -0.001540
  Correlation coefficient:             -0.001085
  Center-of-mass size [Ang]:            0.843428
    Cartesian components [Ang]:       [  0.497596,   0.542491,   0.411671]

Alpha spin:
  Trans. dipole moment [D]:             0.000072
    Cartesian components [D]:         [ -0.000072,   0.000004,  -0.000003]
  Transition <r^2> [a.u.]:              0.007707
    Cartesian components [a.u.]:      [ -0.005453,   0.005446,   0.000007]
  <r_h> [Ang]:                        [ -0.004313,  -0.000382,   0.102343]
  <r_e> [Ang]:                        [ -0.015472,  -0.005991,   0.359367]
  |<r_e - r_h>| [Ang]:                  0.257327
  Hole size [Ang]:                      1.220259
    Cartesian components [Ang]:       [  0.794360,   0.655790,   0.654189]
  Electron size [Ang]:                  1.392647
    Cartesian components [Ang]:       [  0.597036,   0.899326,   0.879901]
  RMS electron-hole separation [Ang]:   1.882207
    Cartesian components [Ang]:       [  0.993818,   1.113053,   1.147232]
  Covariance(r_h, r_e) [Ang^2]:        -0.023993
  Correlation coefficient:             -0.014119
  Center-of-mass size [Ang]:            0.919309
    Cartesian components [Ang]:       [  0.496833,   0.556517,   0.537191]

Beta spin:
  Trans. dipole moment [D]:             0.011423
    Cartesian components [D]:         [  0.011398,  -0.000585,   0.000482]
  Transition <r^2> [a.u.]:              0.111351
    Cartesian components [a.u.]:      [  0.078333,  -0.079134,   0.000800]
  <r_h> [Ang]:                        [ -0.021105,   0.003288,   0.503792]
  <r_e> [Ang]:                        [ -0.001216,   0.000096,   0.029709]
  |<r_e - r_h>| [Ang]:                  0.474511
  Hole size [Ang]:                      1.241489
    Cartesian components [Ang]:       [  0.470724,   0.955213,   0.638188]
  Electron size [Ang]:                  1.139642
    Cartesian components [Ang]:       [  0.876845,   0.513940,   0.515551]
  RMS electron-hole separation [Ang]:   1.750784
    Cartesian components [Ang]:       [  0.995406,   1.084701,   0.947541]
  Covariance(r_h, r_e) [Ang^2]:        -0.000002
  Correlation coefficient:             -0.000001
  Center-of-mass size [Ang]:            0.842626
    Cartesian components [Ang]:       [  0.497604,   0.542348,   0.410205]

  RASSI analysis for state D4
  ---------------------------
Energy: 7.3412 eV

Using spin-traced density matrices ...

NOs
  Occupation of frontier NOs:
     0.0478   0.0627   0.9905   1.9501   1.9710   1.9779
  Number of electrons: 17.000000
  Number of unpaired electrons: n_u =  1.20213, n_u,nl =  1.03797
  NO participation ratio (PR_NO):  1.458041

NDOs
  Leading detachment eigenvalues:
    -0.9522  -0.0926  -0.0245
  Leading attachment eigenvalues:
     0.9694   0.1170   0.0000
  Number of detached / attached electrons: p_D =  1.0864, p_A =  1.0864
  Number of involved orbitals: PR_D =  1.288353, PR_A =  1.237983

Mulliken Population Analysis
    Atom      Charge (e)              h+              e-           Del q
------------------------------------------------------------------------
1 S1            0.796545        0.968539       -0.714822        0.253717
2 H2            0.105646        0.058619       -0.181348       -0.122729
3 H3            0.097809        0.059233       -0.190221       -0.130988
------------------------------------------------------------------------
    Sum:        1.000000        1.086392       -1.086392        0.000000

Lowdin Population Analysis
    Atom      Charge (e)              h+              e-           Del q
------------------------------------------------------------------------
1 S1            0.914222        0.988201       -0.673333        0.314868
2 H2            0.046975        0.048807       -0.201779       -0.152971
3 H3            0.038804        0.049383       -0.211280       -0.161897
------------------------------------------------------------------------
    Sum:        1.000000        1.086392       -1.086392        0.000000

Multipole moment analysis of the density matrix
  Molecular charge:                      1.000000
  Number of electrons:                   17.000000
    Center of electronic charge [Ang]: [ -0.005172,  -0.000399,   0.122642]
  Total nuclear charge:                  18.000000
    Center of nuclear charge [Ang]:    [ -0.005882,   0.000000,   0.139960]
  Dipole moment [D]:                     1.415696
    Cartesian components [D]:          [ -0.057971,   0.032618,   1.414132]
  RMS size of the density [Ang]:         0.816534
    Cartesian components [Ang]:        [  0.335946,   0.513692,   0.538505]

Exciton analysis of the difference density matrix
  <r_h> [Ang]:                  [ -0.005715,  -0.000677,   0.135142]
  <r_e> [Ang]:                  [ -0.014781,  -0.006875,   0.341957]
  |<r_e - r_h>| [Ang]:            0.207106
  Hole size [Ang]:                1.204153
    Cartesian components [Ang]: [  0.839770,   0.593443,   0.626576]
  Electron size [Ang]:            1.392498
    Cartesian components [Ang]: [  0.473867,   0.935238,   0.916423]

  RASSI analysis for transiton from state 1 to 4 (D1-D4)
  ------------------------------------------------------
Energy: 7.3412 eV

NTOs (alpha)
  Leading SVs:
     0.8858   0.0000   0.0000
  Sum of SVs (Omega):               0.885861
  Participation ratio (PR_NTO):     1.000042
  Entanglement entropy (S_HE):      0.155204
  Nr of entangled states (Z_HE):    1.113579
  Renormalized S_HE/Z_HE:  0.000354 /  1.000245
NTOs (beta)
  Leading SVs:
     0.0078   0.0023   0.0000
  Sum of SVs (Omega):               0.010123
  Participation ratio (PR_NTO):     1.553329
  Entanglement entropy (S_HE):      0.074985
  Nr of entangled states (Z_HE):    1.053350
  Renormalized S_HE/Z_HE:  0.781271 /  1.718644

CT numbers (Mulliken)
  omega        =     0.8960 (alpha:     0.8859, beta:     0.0101)
 2<alpha|beta> =    -0.0170
  LOC          =     0.0020 (alpha:     0.0020, beta:     0.0000)
  <Phe>        =    -0.0179 (alpha:    -0.0089, beta:    -0.8074)

CT numbers (Lowdin)
  omega        =     0.8960 (alpha:     0.8859, beta:     0.0101)
 2<alpha|beta> =    -0.0170
  LOC          =     0.0012 (alpha:     0.0012, beta:     0.0000)
  <Phe>        =    -0.0179 (alpha:    -0.0089, beta:    -0.8074)

Exciton analysis of the transition density matrix
Total:
  Trans. dipole moment [D]:             0.001755
    Cartesian components [D]:         [ -0.001751,   0.000090,  -0.000074]
  Transition <r^2> [a.u.]:              0.051205
    Cartesian components [a.u.]:      [  0.036272,  -0.036143,  -0.000128]
  <r_h> [Ang]:                        [ -0.001437,   0.000248,   0.035112]
  <r_e> [Ang]:                        [ -0.021881,  -0.011669,   0.503992]
  |<r_e - r_h>| [Ang]:                  0.469477
  Hole size [Ang]:                      1.142222
    Cartesian components [Ang]:       [  0.874115,   0.519942,   0.519859]
  Electron size [Ang]:                  1.455299
    Cartesian components [Ang]:       [  0.470377,   1.001107,   0.945741]
  RMS electron-hole separation [Ang]:   1.910002
    Cartesian components [Ang]:       [  0.992854,   1.128137,   1.178837]
  Covariance(r_h, r_e) [Ang^2]:        -0.002566
  Correlation coefficient:             -0.001544
  Center-of-mass size [Ang]:            0.924315
    Cartesian components [Ang]:       [  0.496317,   0.564039,   0.538412]

Alpha spin:
  Trans. dipole moment [D]:             0.002943
    Cartesian components [D]:         [  0.002937,  -0.000151,   0.000124]
  Transition <r^2> [a.u.]:              0.047508
    Cartesian components [a.u.]:      [  0.033685,  -0.033501,  -0.000184]
  <r_h> [Ang]:                        [ -0.001217,   0.000096,   0.029721]
  <r_e> [Ang]:                        [ -0.022086,  -0.011772,   0.508716]
  |<r_e - r_h>| [Ang]:                  0.479596
  Hole size [Ang]:                      1.139654
    Cartesian components [Ang]:       [  0.876845,   0.513947,   0.515572]
  Electron size [Ang]:                  1.457671
    Cartesian components [Ang]:       [  0.465219,   1.004574,   0.948265]
  RMS electron-hole separation [Ang]:   1.911451
    Cartesian components [Ang]:       [  0.992835,   1.128473,   1.180878]
  Covariance(r_h, r_e) [Ang^2]:        -0.000007
  Correlation coefficient:             -0.000004
  Center-of-mass size [Ang]:            0.925149
    Cartesian components [Ang]:       [  0.496308,   0.564205,   0.539677]

Beta spin:
  Trans. dipole moment [D]:             0.004698
    Cartesian components [D]:         [ -0.004687,   0.000240,  -0.000198]
  Transition <r^2> [a.u.]:              0.003698
    Cartesian components [a.u.]:      [  0.002587,  -0.002643,   0.000056]
  <r_h> [Ang]:                        [ -0.020706,   0.013570,   0.506826]
  <r_e> [Ang]:                        [ -0.003928,  -0.002595,   0.090557]
  |<r_e - r_h>| [Ang]:                  0.416921
  Hole size [Ang]:                      1.261655
    Cartesian components [Ang]:       [  0.587780,   0.901433,   0.658564]
  Electron size [Ang]:                  1.157536
    Cartesian components [Ang]:       [  0.802046,   0.627303,   0.550547]
  RMS electron-hole separation [Ang]:   1.778628
    Cartesian components [Ang]:       [  0.994527,   1.098307,   0.983949]
  Covariance(r_h, r_e) [Ang^2]:        -0.029017
  Correlation coefficient:             -0.019869
  Center-of-mass size [Ang]:            0.847589
    Cartesian components [Ang]:       [  0.497173,   0.549127,   0.411929]

  RASSI analysis for state D5
  ---------------------------
Energy: 8.2953 eV

Using spin-traced density matrices ...

NOs
  Occupation of frontier NOs:
     0.1166   0.1541   0.9345   1.9217   1.9296   1.9435
  Number of electrons: 17.000000
  Number of unpaired electrons: n_u =  1.41026, n_u,nl =  1.17363
  NO participation ratio (PR_NO):  2.150328

NDOs
  Leading detachment eigenvalues:
    -0.8459  -0.1592  -0.0587
  Leading attachment eigenvalues:
     0.9162   0.1959   0.0000
  Number of detached / attached electrons: p_D =  1.1121, p_A =  1.1121
  Number of involved orbitals: PR_D =  1.656374, PR_A =  1.409031

Mulliken Population Analysis
    Atom      Charge (e)              h+              e-           Del q
------------------------------------------------------------------------
1 S1            0.854836        0.934026       -0.622018        0.312007
2 H2            0.067745        0.089205       -0.249835       -0.160630
3 H3            0.077420        0.088917       -0.240294       -0.151377
------------------------------------------------------------------------
    Sum:        1.000000        1.112148       -1.112148       -0.000000

Lowdin Population Analysis
    Atom      Charge (e)              h+              e-           Del q
------------------------------------------------------------------------
1 S1            0.932101        0.952867       -0.620120        0.332748
2 H2            0.028790        0.079686       -0.250842       -0.171156
3 H3            0.039109        0.079594       -0.241186       -0.161592
------------------------------------------------------------------------
    Sum:        1.000000        1.112148       -1.112148       -0.000000

Multipole moment analysis of the density matrix
  Molecular charge:                      1.000000
  Number of electrons:                   17.000000
    Center of electronic charge [Ang]: [ -0.005430,   0.000424,   0.129721]
  Total nuclear charge:                  18.000000
    Center of nuclear charge [Ang]:    [ -0.005882,   0.000000,   0.139960]
  Dipole moment [D]:                     0.837640
    Cartesian components [D]:          [ -0.036969,  -0.034600,   0.836108]
  RMS size of the density [Ang]:         0.826314
    Cartesian components [Ang]:        [  0.345767,   0.510473,   0.550144]

Exciton analysis of the difference density matrix
  <r_h> [Ang]:                  [ -0.008448,   0.000502,   0.201179]
  <r_e> [Ang]:                  [ -0.021235,   0.007031,   0.511410]
  |<r_e - r_h>| [Ang]:            0.310564
  Hole size [Ang]:                1.223454
    Cartesian components [Ang]: [  0.799663,   0.645214,   0.664137]
  Electron size [Ang]:            1.456933
    Cartesian components [Ang]: [  0.521646,   0.936100,   0.987043]

  RASSI analysis for transiton from state 1 to 5 (D1-D5)
  ------------------------------------------------------
Energy: 8.2953 eV

NTOs (alpha)
  Leading SVs:
     0.8271   0.0001   0.0000
  Sum of SVs (Omega):               0.827250
  Participation ratio (PR_NTO):     1.000307
  Entanglement entropy (S_HE):      0.228130
  Nr of entangled states (Z_HE):    1.171316
  Renormalized S_HE/Z_HE:  0.002164 /  1.001501
NTOs (beta)
  Leading SVs:
     0.0415   0.0021   0.0000
  Sum of SVs (Omega):               0.043565
  Participation ratio (PR_NTO):     1.101743
  Entanglement entropy (S_HE):      0.209147
  Nr of entangled states (Z_HE):    1.156004
  Renormalized S_HE/Z_HE:  0.280114 /  1.214291

CT numbers (Mulliken)
  omega        =     0.8708 (alpha:     0.8272, beta:     0.0436)
 2<alpha|beta> =    -0.0163
  LOC          =     0.0011 (alpha:     0.0011, beta:     0.0000)
  <Phe>        =     0.0425 (alpha:     0.0228, beta:     0.4169)

CT numbers (Lowdin)
  omega        =     0.8708 (alpha:     0.8272, beta:     0.0436)
 2<alpha|beta> =    -0.0163
  LOC          =     0.0006 (alpha:     0.0006, beta:     0.0000)
  <Phe>        =     0.0425 (alpha:     0.0228, beta:     0.4169)

Exciton analysis of the transition density matrix
Total:
  Trans. dipole moment [D]:             0.238269
    Cartesian components [D]:         [ -0.237744,   0.012195,  -0.010056]
  Transition <r^2> [a.u.]:              0.017093
    Cartesian components [a.u.]:      [  0.011907,   0.000364,  -0.012259]
  <r_h> [Ang]:                        [ -0.001733,   0.000054,   0.041875]
  <r_e> [Ang]:                        [ -0.028235,   0.011944,   0.682849]
  |<r_e - r_h>| [Ang]:                  0.641632
  Hole size [Ang]:                      1.133352
    Cartesian components [Ang]:       [  0.863303,   0.517557,   0.520892]
  Electron size [Ang]:                  1.494589
    Cartesian components [Ang]:       [  0.551821,   0.972635,   0.991600]
  RMS electron-hole separation [Ang]:   1.983789
    Cartesian components [Ang]:       [  1.019850,   1.101815,   1.296660]
  Covariance(r_h, r_e) [Ang^2]:        -0.002721
  Correlation coefficient:             -0.001607
  Center-of-mass size [Ang]:            0.937129
    Cartesian components [Ang]:       [  0.514832,   0.550888,   0.556489]

Alpha spin:
  Trans. dipole moment [D]:             0.356938
    Cartesian components [D]:         [  0.356151,  -0.018268,   0.015065]
  Transition <r^2> [a.u.]:              0.024583
    Cartesian components [a.u.]:      [  0.017177,   0.000386,  -0.017582]
  <r_h> [Ang]:                        [ -0.001218,   0.000096,   0.029750]
  <r_e> [Ang]:                        [ -0.029611,   0.012542,   0.716114]
  |<r_e - r_h>| [Ang]:                  0.687063
  Hole size [Ang]:                      1.139678
    Cartesian components [Ang]:       [  0.876807,   0.513978,   0.515657]
  Electron size [Ang]:                  1.503893
    Cartesian components [Ang]:       [  0.530385,   0.990855,   0.999296]
  RMS electron-hole separation [Ang]:   2.008031
    Cartesian components [Ang]:       [  1.024899,   1.116298,   1.317441]
  Covariance(r_h, r_e) [Ang^2]:         0.000215
  Correlation coefficient:              0.000125
  Center-of-mass size [Ang]:            0.943529
    Cartesian components [Ang]:       [  0.512491,   0.558115,   0.562235]

Beta spin:
  Trans. dipole moment [D]:             0.595206
    Cartesian components [D]:         [ -0.593895,   0.030462,  -0.025121]
  Transition <r^2> [a.u.]:              0.007491
    Cartesian components [a.u.]:      [ -0.005270,  -0.000022,   0.005324]
  <r_h> [Ang]:                        [ -0.011512,  -0.000742,   0.272118]
  <r_e> [Ang]:                        [ -0.002100,   0.000577,   0.051191]
  |<r_e - r_h>| [Ang]:                  0.221131
  Hole size [Ang]:                      0.977506
    Cartesian components [Ang]:       [  0.546795,   0.581351,   0.564416]
  Electron size [Ang]:                  1.132779
    Cartesian components [Ang]:       [  0.862717,   0.516298,   0.521865]
  RMS electron-hole separation [Ang]:   1.448392
    Cartesian components [Ang]:       [  0.918724,   0.777180,   0.806088]
  Covariance(r_h, r_e) [Ang^2]:         0.094882
  Correlation coefficient:              0.085688
  Center-of-mass size [Ang]:            0.779178
    Cartesian components [Ang]:       [  0.557352,   0.388927,   0.381067]

===== TheoDORE analysis of CT numbers (Mulliken)===========================================
| State            dE(eV)      f         Om        POSi      POSf      PR        CT        
| -----------------------------------------------------------------------------------------
| D1-D2           3.384607  0.007888  0.945975  1.118424  1.002760  1.134719  0.120548
| D1-D3           3.752751  0.000002  0.916150  1.183031  1.004541  1.217891  0.186580
| D1-D4           7.341235  0.000000  0.895984  1.004808  1.268739  1.328604  0.272093
| D1-D5           8.295305  0.001786  0.870815  1.004187  1.294572  1.359781  0.297170
===========================================================================================


===== TheoDORE analysis of CT numbers (Lowdin)=============================================
| State            dE(eV)      f         Om        POSi      POSf      PR        CT        
| -----------------------------------------------------------------------------------------
| D1-D2           3.384607  0.007888  0.945975  1.095930  1.004846  1.109797  0.099857
| D1-D3           3.752751  0.000002  0.916150  1.174077  1.006601  1.208447  0.178995
| D1-D4           7.341235  0.000000  0.895984  1.006675  1.261466  1.321321  0.265621
| D1-D5           8.295305  0.001786  0.870815  1.009011  1.269166  1.333401  0.275561
===========================================================================================

 Writing fragment Omega matrix to OmFrag.txt
--- Stop Module: wfa at Wed Mar 27 10:59:57 2024 /rc=_RC_ALL_IS_WELL_ ---

>>> COPY MOLCAS.rassi.h5.bak MOLCAS.rassi.h5

.##################.
.# Happy landing! #.
.##################.

    Timing: Wall=34.18 User=29.43 System=4.40
