   This run of MOLCAS is using the pymolcas driver

                             OPE
                             OPE          NMOL  CASOP  ENMOLC A   SO
                 OPE        NMOLC        AS  OP EN  MO LC     AS  OP
                OPENM       OL CA        SO  PE NM  OL CA     SOP EN
                OP EN      MO   LC       AS  OP ENMOL  CASO   PENMOL
                OP  EN     MO   LC       AS  OP EN     MO     LC ASO
               OP   E  NMOL  C  AS       OP  EN MO     LC     AS  OP
               OP  E   NMO   LC AS        OPEN  MO     LCASOP EN   M
               O  PEN   MO  LCA  SO
            OPE   NMO   L   CAS    OP
        OPENMOL  CASOP     ENMOL   CASOPE
     OPENMOLCA   SOPENMOLCASOPEN   MOLCASOPE
    OPENMOLCAS   OP           EN   MOL    CAS
    OPENMOLCAS       OP  ENM        O     LCA
    OPENMOLCAS    OPEN  MOLCASO     P  E  NMO
    OPENMOLCAS     OP               E  N  MOL
    OPENMOLCA   SO           PENM   O  L  CAS    OPEN    MO    LCAS
    OPENMOLCA   SOP           ENM   O  L  CAS   OP  EN  MOLC  AS   O
    OPENMOLCA   SOPE           NM      O  LCA   S      OP  EN MO
    OPENMOLC                AS         O  PEN   M      OL  CA  SOPE
    OPENMO        LCASOPE  NMOL        C  ASO   P      ENMOLC     AS
    OPE     NMO      LCA  SO     P     E   NM   OL  CA SO  PE N   MO
          OPENMOLCA            SOPE   NMO        LCAS  O    P  ENMO
     OPENMOLCASOPENMOLCASOPENMOLCASOPENMOLCA
        OPENMOLCASOPENMOLCASOPENMOLCASOPE
            OPENMOLCASOPENMOLCASOPENM
               OPENMOLCASOPENMOLCA        version: v23.06
                   OPENMOLCASO
                       OPE                tag:

 OpenMolcas is free software; you can redistribute it and/or modify it
 under the terms of the GNU Lesser General Public License version 2.1.
 OpenMolcas is distributed in the hope that it will be useful, but it
 is provided "as is" and without any express or implied warranties.
 For more details see the full text of the license in the file
 LICENSE or in <http://www.gnu.org/licenses/>.

                 Copyright (C) The OpenMolcas Authors
           For the author list and the recommended citation,
                   consult the file CONTRIBUTORS.md

           *************************************************
           * pymolcas version py2.24                       *
           *   build 0399f41f8acc7cc530e7639ac37f2484      *
           *   (after the EMIL interpreter by V. Veryazov) *
           *************************************************

configuration info
------------------
Host name: manganese.itc.univie.ac.at (Linux)
C Compiler ID: GNU
C flags: -std=gnu99
Fortran Compiler ID: Intel
Fortran flags: -fpp -i8 -heap-arrays
Definitions: _MOLCAS_;_I8_;_LINUX_
Parallel: OFF (GA=OFF)


   ---------------------------------------------------------------------------
  |
  |           Project: MOLCAS
  |    Submitted from: /public/manganese/scratch/tmp/sascha.925337/WORK/master
  |      Scratch area: /public/manganese/scratch/tmp/sascha.925337/WORK/master
  |   Save outputs to: WORKDIR
  |            Molcas: /usr/license/openmolcas/v23.06_wfa
  |
  | Scratch area is NOT empty
  |
  |        MOLCASMEM = 10000
  |    MOLCAS_DRIVER = /usr/license/openmolcas/v23.06_wfa/pymolcas
  |    MOLCAS_NPROCS = 1
  |    MOLCAS_SOURCE = /usr/license/openmolcas/v23.06_wfa
  | MOLCAS_STRUCTURE = 0
  |
   ---------------------------------------------------------------------------

++ ---------   Input file   ---------

&GATEWAY
COORD=MOLCAS.xyz
GROUP=NOSYM
BASIS=cc-pvdz
BASLIB
/user/sascha/development/eci/sharc_main/examples/SHARC_MOLCAS/basisset

RICD
CDTHreshold=0.0001

&SEWARD

&RASSCF
SPIN=1
NACTEL=8 0 0
INACTIVE=5
RAS2=6
ITERATIONS=200,100
CIROOT=10 10 1
THRS=0.000000010000 0.000100000000 0.000100000000

&CASPT2
SHIFT=0.0
IMAGINARY= 0.000
IPEASHIFT= 0.25
MAXITER=120
MULTISTATE= 6 1 2 3 4 5 6
OUTPUT=BRIEF
PRWF=0.1

>>> COPY MOLCAS.JobMix MOLCAS.1.JobIph

&RASSCF
SPIN=2
NACTEL=7 0 0
INACTIVE=5
RAS2=6
ITERATIONS=200,100
CIROOT=5 5 1
THRS=0.000000010000 0.000100000000 0.000100000000

&CASPT2
SHIFT=0.0
IMAGINARY= 0.000
IPEASHIFT= 0.25
MAXITER=120
MULTISTATE= 5 1 2 3 4 5
OUTPUT=BRIEF
PRWF=0.1

>>> COPY MOLCAS.JobMix MOLCAS.2.JobIph

&RASSCF
SPIN=3
NACTEL=8 0 0
INACTIVE=5
RAS2=6
ITERATIONS=200,100
CIROOT=4 4 1
THRS=0.000000010000 0.000100000000 0.000100000000

&CASPT2
SHIFT=0.0
IMAGINARY= 0.000
IPEASHIFT= 0.25
MAXITER=120
MULTISTATE= 3 1 2 3
OUTPUT=BRIEF
PRWF=0.1

>>> COPY MOLCAS.JobMix MOLCAS.3.JobIph

>>> COPY MOLCAS.1.JobIph JOB001

>>> COPY MOLCAS.2.JobIph JOB002

>>> COPY MOLCAS.3.JobIph JOB003

&RASSI
NROFJOBIPHS
3 6 5 3
1 2 3 4 5 6
1 2 3 4 5
1 2 3
MEIN
EJOB

>>> COPY MOLCAS.rassi.h5 MOLCAS.rassi.h5.bak

>>> COPY MOLCAS.1.JobIph JOB001

>>> COPY MOLCAS.3.JobIph JOB002

&RASSI
NROFJOBIPHS
2 6 3
1 2 3 4 5 6
1 2 3
MEIN
EJOB
TRD1

&WFA
H5file = MOLCAS.rassi.h5
DoCTnumbers
ATLISTS
2
1 2 *
3 *
PROP Om POSi POSf PR CT *
LOWDIN
NXO
EXCITON
WFALEVEL 4

>>> COPY MOLCAS.2.JobIph JOB001

&RASSI
NROFJOBIPHS
1 5
1 2 3 4 5
MEIN
EJOB
TRD1

&WFA
H5file = MOLCAS.rassi.h5
DoCTnumbers
ATLISTS
2
1 2 *
3 *
PROP Om POSi POSf PR CT *
LOWDIN
NXO
EXCITON
WFALEVEL 4

>>> COPY MOLCAS.rassi.h5.bak MOLCAS.rassi.h5

-- ----------------------------------

--- Start Module: gateway at Wed Mar 27 10:53:00 2024 ---
 
()()()()()()()()()()()()()()()()()()()()()()()()()()()()()()()()()()()()()()()()()()()()()()()()()()

                                              &GATEWAY

                                   only a single process is used
                       available to each process: 10 GB of memory, 1 thread?
                                            pid: 732213
()()()()()()()()()()()()()()()()()()()()()()()()()()()()()()()()()()()()()()()()()()()()()()()()()()
 
 
 
 Basis Set     1 Label: S.CC-PVDZ
 Basis set is read from library:/user/sascha/development/eci/sharc_main/examples/SHARC_MOLCAS/basisset 
 
 
 Basis Set     2 Label: H.CC-PVDZ
 Basis set is read from library:/user/sascha/development/eci/sharc_main/examples/SHARC_MOLCAS/basisset 
 
++    Symmetry information:
      ---------------------
 
                    Character Table for C1 
 
                             E  
                    a        1  x, y, xy, Rz, z, xz, Ry, yz, Rx, I
--
 
 
++    Basis set information:
      ----------------------
 
 
      Basis set label: S.CC-PVDZ.........
 
      Electronic valence basis set:
      ------------------
      Associated Effective Charge  16.000000 au
      Associated Actual Charge     16.000000 au
      Nuclear Model: Point charge
 
      Shell  nPrim  nBasis  Cartesian Spherical Contaminant
         s      12       4        X                  
         p       8       3        X                  
         d       1       1                 X         
 
 
      Basis set label: H.CC-PVDZ.........
 
      Electronic valence basis set:
      ------------------
      Associated Effective Charge   1.000000 au
      Associated Actual Charge      1.000000 au
      Nuclear Model: Point charge
 
      Shell  nPrim  nBasis  Cartesian Spherical Contaminant
         s       4       2        X                  
         p       1       1        X                  
--
 
 
++    Molecular structure info:
      -------------------------
 
                    ************************************************ 
                    **** Cartesian Coordinates / Bohr, Angstrom **** 
                    ************************************************ 
 
     Center  Label                x              y              z                     x              y              z
        1      S1               0.000000       0.000000       0.001589              0.000000       0.000000       0.000841
        2      H2               0.000000       1.842103       2.235421              0.000000       0.974799       1.182934
        3      H3              -0.188973      -1.842103       2.235421             -0.100000      -0.974799       1.182934
 
                    *************************************** 
                    *    InterNuclear Distances / Bohr    * 
                    *************************************** 
 
               1 S1            2 H2            3 H3    
    1 S1       0.000000
    2 H2       2.895401        0.000000
    3 H3       2.901562        3.689050        0.000000
 
                    ******************************************* 
                    *    InterNuclear Distances / Angstrom    * 
                    ******************************************* 
 
               1 S1            2 H2            3 H3    
    1 S1       0.000000
    2 H2       1.532180        0.000000
    3 H3       1.535440        1.952161        0.000000
 
                    ************************************** 
                    *    Valence Bond Angles / Degree    * 
                    ************************************** 
                          Atom centers                 Phi
                      2 H2       1 S1       3 H3        79.04
--
 
 
            Nuclear Potential Energy             11.31134847 au
 
--- Stop Module: gateway at Wed Mar 27 10:53:00 2024 /rc=_RC_ALL_IS_WELL_ ---

--- Start Module: seward at Wed Mar 27 10:53:00 2024 ---
 
()()()()()()()()()()()()()()()()()()()()()()()()()()()()()()()()()()()()()()()()()()()()()()()()()()

                                              &SEWARD

                                   only a single process is used
                       available to each process: 10 GB of memory, 1 thread?
                                            pid: 732216
()()()()()()()()()()()()()()()()()()()()()()()()()()()()()()()()()()()()()()()()()()()()()()()()()()
 
               SEWARD will generate:
                  Multipole Moment integrals up to order  2
                  Kinetic Energy integrals
                  Nuclear Attraction integrals (point charge)
                  One-Electron Hamiltonian integrals
                  Velocity integrals
                  Orbital angular momentum around (-0.0056  0.0000  0.1341 )
                  Velocity quadrupole around (-0.0056  0.0000  0.1341 )
                  RI decomposed two-electron repulsion integrals stored Cholesky style
                   - acCD auxiliary basis
                   - CD Threshold:   0.10E-03
 
                   Integrals are discarded if absolute value <: 0.10E-13
                   Integral cutoff threshold is set to       <: 0.10E-15
 
            Nuclear Potential Energy             11.31134847 au
 
 
      Basis set specifications :
      Symmetry species         a  
      Basis functions           28
 
 
      Input file to MOLDEN was generated!
 
--- Stop Module: seward at Wed Mar 27 10:53:01 2024 /rc=_RC_ALL_IS_WELL_ ---

*** symbolic link created: INPORB -> MOLCAS.GssOrb
--- Start Module: rasscf at Wed Mar 27 10:53:01 2024 ---
 
()()()()()()()()()()()()()()()()()()()()()()()()()()()()()()()()()()()()()()()()()()()()()()()()()()

                                              &RASSCF

                                   only a single process is used
                       available to each process: 10 GB of memory, 1 thread?
                                            pid: 732219
()()()()()()()()()()()()()()()()()()()()()()()()()()()()()()()()()()()()()()()()()()()()()()()()()()
 
 
      Header of the ONEINT file:
      --------------------------
      
      Integrals generated by Gateway/Seward, Wed Mar 27 10:53:01 2024
 
 
      OrdInt status: non-squared
 
 
      Cartesian coordinates in Angstrom:
      -----------------------------------------------------
      No.  Label        X            Y            Z        
      -----------------------------------------------------
       1   S1         0.00000000   0.00000000   0.00084100
       2   H2         0.00000000   0.97479900   1.18293400
       3   H3        -0.10000000  -0.97479900   1.18293400
      -----------------------------------------------------
      Nuclear repulsion energy =   11.31134847
 
++    Wave function specifications:
      -----------------------------
 
      Number of closed shell electrons          10
      Number of electrons in active shells       8
      Max number of holes in RAS1 space          0
      Max nr of electrons in RAS3 space          0
      Number of inactive orbitals                5
      Number of active orbitals                  6
      Number of secondary orbitals              17
      Spin quantum number                      0.0
      State symmetry                             1
--
 
++    Orbital specifications:
      -----------------------
 
      Symmetry species                           1
                                                 a
      Frozen orbitals                            0
      Inactive orbitals                          5
      Active orbitals                            6
      RAS1 orbitals                              0
      RAS2 orbitals                              6
      RAS3 orbitals                              0
      Secondary orbitals                        17
      Deleted orbitals                           0
      Number of basis functions                 28
--
 
++    CI expansion specifications:
      ----------------------------
 
      Number of CSFs                           105
      Number of determinants                   120
      Number of root(s) required                10
      Root chosen for geometry opt.             10
      CI roots used                              1     2     3     4     5     6     7     8     9    10
      weights                                0.100 0.100 0.100 0.100 0.100 0.100 0.100 0.100 0.100 0.100
      highest root included in the CI           10
      max. size of the explicit Hamiltonian    105
--
 
++    Optimization specifications:
      ----------------------------
 
      RASSCF algorithm: LK RI/DF
      Maximum number of macro iterations       200
      Maximum number of SX iterations          100
      Threshold for RASSCF energy            0.100E-07
      Threshold for max MO rotation          0.100E-03
      Threshold for max BLB element          0.100E-03
      Level shift parameter                  0.500E+00
      Make Quasi-Newton update
--
 
      Orbitals from runfile: guessorb orbitals
      The MO-coefficients are taken from guessorb on runfile
 
      Total molecular charge    0.00
 
      ************************************************************************************************************************
      *                                                                                                                      *
      *                                            Wave function control section                                             *
      *                                                                                                                      *
      ************************************************************************************************************************
 
 
                                         RASSCF iterations: Energy and convergence statistics
                                         ----------------------------------------------------
 
      Iter CI   SX   CI       RASSCF       Energy    max ROT     max BLB   max BLB  Level Ln srch  Step   QN   Walltime
          iter iter root      energy       change     param      element    value   shift minimum  type update hh:mm:ss
 Nr of preliminary CI iterations:   1
        1   1   79    0  -398.26969976    0.00E+00   0.14E+00*   7  18 1  0.14E+00*  0.00   0.00    SX    NO    0:00:00
        2   1   31    0  -398.34815254   -0.78E-01* -0.67E-01*  11  13 1 -0.31E-01*  0.00   0.00    SX    NO    0:00:00
        3   1   14    0  -398.35517623   -0.70E-02*  0.27E-01*  11  13 1 -0.12E-01*  0.00   0.00    SX    NO    0:00:00
        4   1   14    0  -398.35608083   -0.90E-03*  0.12E-01*  11  13 1 -0.50E-02*  0.00   0.00    SX    NO    0:00:00
        5   1   13    0  -398.35622120   -0.14E-03*  0.76E-02*  11  13 1 -0.20E-02*  0.00   1.67    LS   YES    0:00:00
        6   1   11    0  -398.35624821   -0.27E-04*  0.36E-03*   6  13 1 -0.29E-03*  0.00   1.02    QN   YES    0:00:00
        7   1    9    0  -398.35624859   -0.38E-06* -0.12E-03*   7  12 1  0.50E-04   0.00   1.13    QN   YES    0:00:00
        8   1    6    0  -398.35624861   -0.25E-07*  0.17E-04   10  18 1  0.10E-04   0.00   1.06    QN   YES    0:00:00
        9   1    5    0  -398.35624861   -0.51E-09   0.34E-05    6  13 1  0.23E-05   0.00   1.19    QN   YES    0:00:00
      Convergence after  9 iterations
       10   1    5    0  -398.35624861   -0.27E-10   0.34E-05    7  18 1  0.22E-06   0.00   1.19    QN   YES    0:00:00
 
      ************************************************************************************************************************
                                                      Wave function printout:
                       occupation of active orbitals, and spin coupling of open shells (u,d: Spin up or down)
      ************************************************************************************************************************
 
      Note: transformation to natural orbitals
      has been made, which may change the order of the CSFs.
 
      printout of CI-coefficients larger than  0.05 for root  1
      energy=    -398.690796
      conf/sym  111111     Coeff  Weight
             1  222200  -0.95825 0.91824
             9  22u20d   0.14513 0.02106
            15  2u22d0   0.15740 0.02477
            25  u2220d   0.05078 0.00258
            31  220220   0.07697 0.00592
            34  220202   0.05161 0.00266
            38  2ud2ud   0.10455 0.01093
            49  202220   0.08678 0.00753
 
      printout of CI-coefficients larger than  0.05 for root  2
      energy=    -398.510185
      conf/sym  111111     Coeff  Weight
             2  222ud0   0.97503 0.95069
            10  22udud   0.07872 0.00620
            11  22uudd  -0.11959 0.01430
            16  2u2d20   0.05389 0.00290
            21  2u2d02   0.08111 0.00658
            26  u22dud   0.05370 0.00288
            35  220ud2  -0.06535 0.00427
            39  2udu2d  -0.07190 0.00517
 
      printout of CI-coefficients larger than  0.05 for root  3
      energy=    -398.476147
      conf/sym  111111     Coeff  Weight
             4  222u0d  -0.96332 0.92799
             8  22ud20  -0.11729 0.01376
            18  2u2dud  -0.14778 0.02184
            19  2u2udd  -0.09437 0.00891
            33  220u2d  -0.06478 0.00420
            41  2udud2  -0.07658 0.00587
            51  202u2d  -0.10848 0.01177
 
      printout of CI-coefficients larger than  0.05 for root  4
      energy=    -398.351934
      conf/sym  111111     Coeff  Weight
             3  222020   0.08593 0.00738
             7  22u2d0  -0.05711 0.00326
             9  22u20d  -0.73037 0.53344
            15  2u22d0   0.60270 0.36325
            25  u2220d   0.06363 0.00405
            31  220220  -0.17681 0.03126
            38  2ud2ud  -0.05908 0.00349
            43  u2d220  -0.07685 0.00591
            46  u2d202   0.05942 0.00353
            49  202220  -0.09499 0.00902
            52  202202   0.14656 0.02148
            56  ud22ud   0.05433 0.00295
 
      printout of CI-coefficients larger than  0.05 for root  5
      energy=    -398.347194
      conf/sym  111111     Coeff  Weight
             7  22u2d0   0.69289 0.48009
            15  2u22d0   0.05168 0.00267
            17  2u220d  -0.64705 0.41867
            32  2202ud   0.10661 0.01137
            37  2ud220  -0.17403 0.03029
            40  2ud202   0.18508 0.03426
            50  2022ud  -0.08276 0.00685
            55  ud2220  -0.07374 0.00544
 
      printout of CI-coefficients larger than  0.05 for root  6
      energy=    -398.279343
      conf/sym  111111     Coeff  Weight
             7  22u2d0  -0.67683 0.45810
            17  2u220d  -0.71543 0.51184
            40  2ud202   0.05291 0.00280
            44  u2d2ud   0.08092 0.00655
            55  ud2220   0.06714 0.00451
            76  2u022d   0.07212 0.00520
 
      printout of CI-coefficients larger than  0.05 for root  7
      energy=    -398.265825
      conf/sym  111111     Coeff  Weight
             3  222020  -0.75501 0.57004
             6  222002   0.52938 0.28024
             9  22u20d  -0.22671 0.05140
            12  22u02d  -0.11120 0.01236
            15  2u22d0  -0.13742 0.01888
            22  2u20d2  -0.17433 0.03039
            25  u2220d   0.10376 0.01077
            34  220202  -0.05281 0.00279
            61  022220   0.05974 0.00357
 
      printout of CI-coefficients larger than  0.05 for root  8
      energy=    -398.216890
      conf/sym  111111     Coeff  Weight
             1  222200   0.18343 0.03365
             3  222020  -0.24283 0.05896
             6  222002   0.12598 0.01587
             9  22u20d   0.55575 0.30885
            15  2u22d0   0.69011 0.47626
            25  u2220d  -0.09022 0.00814
            43  u2d220  -0.07864 0.00618
            49  202220  -0.14952 0.02236
            56  ud22ud  -0.06767 0.00458
            67  2uu2dd   0.17230 0.02969
            77  2u02d2   0.08375 0.00701
            82  20u22d   0.12971 0.01683
 
      printout of CI-coefficients larger than  0.05 for root  9
      energy=    -398.215561
      conf/sym  111111     Coeff  Weight
             2  222ud0  -0.06301 0.00397
            11  22uudd  -0.49939 0.24939
            16  2u2d20   0.68698 0.47194
            21  2u2d02  -0.49281 0.24286
            35  220ud2  -0.08794 0.00773
            53  202ud2   0.09799 0.00960
            74  uu2d2d   0.06694 0.00448
 
      printout of CI-coefficients larger than  0.05 for root 10
      energy=    -398.208610
      conf/sym  111111     Coeff  Weight
             8  22ud20  -0.63818 0.40728
            13  22ud02   0.53179 0.28280
            18  2u2dud   0.08103 0.00657
            19  2u2udd   0.50431 0.25433
            24  u22d20  -0.05163 0.00267
            29  u22d02   0.07742 0.00599
            33  220u2d  -0.08445 0.00713
            51  202u2d   0.11056 0.01222
            69  2uudd2  -0.11118 0.01236
            71  u2ud2d  -0.06305 0.00398
 
      Natural orbitals and occupation numbers for root  1
      sym 1:   1.997178   1.960374   1.963769   1.998361   0.048817   0.031501
 
      Natural orbitals and occupation numbers for root  2
      sym 1:   1.998796   1.985431   1.961014   1.000000   0.998770   0.055989
 
      Natural orbitals and occupation numbers for root  3
      sym 1:   1.998723   1.937366   1.971250   1.000000   0.100449   0.992211
 
      Natural orbitals and occupation numbers for root  4
      sym 1:   1.976905   1.575608   1.369489   1.981513   0.469961   0.626524
 
      Natural orbitals and occupation numbers for root  5
      sym 1:   1.992044   1.520620   1.393122   1.997203   0.609612   0.487400
 
      Natural orbitals and occupation numbers for root  6
      sym 1:   1.990802   1.468051   1.513715   1.998306   0.493917   0.535208
 
      Natural orbitals and occupation numbers for root  7
      sym 1:   1.990927   1.959079   1.921243   0.208629   1.220853   0.699270
 
      Natural orbitals and occupation numbers for root  8
      sym 1:   1.982830   1.400278   1.616383   1.845087   0.733435   0.421986
 
      Natural orbitals and occupation numbers for root  9
      sym 1:   1.998007   1.269236   1.736360   1.000000   1.223390   0.773007
 
      Natural orbitals and occupation numbers for root 10
      sym 1:   1.997688   1.734333   1.270033   1.000000   1.111028   0.886918
 
      ************************************************************************************************************************
      *                                                                                                                      *
      *                                                    Final results                                                     *
      *                                                                                                                      *
      ************************************************************************************************************************
 
 
++    Wave function specifications:
      -----------------------------
 
      Number of closed shell electrons          10
      Number of electrons in active shells       8
      Max number of holes in RAS1 space          0
      Max nr of electrons in RAS3 space          0
      Number of inactive orbitals                5
      Number of active orbitals                  6
      Number of secondary orbitals              17
      Spin quantum number                      0.0
      State symmetry                             1
--
 
++    Orbital specifications:
      -----------------------
 
      Symmetry species                           1
                                                 a
      Frozen orbitals                            0
      Inactive orbitals                          5
      Active orbitals                            6
      RAS1 orbitals                              0
      RAS2 orbitals                              6
      RAS3 orbitals                              0
      Secondary orbitals                        17
      Deleted orbitals                           0
      Number of basis functions                 28
--
 
++    CI expansion specifications:
      ----------------------------
 
      Number of CSFs                           105
      Number of determinants                   120
      Number of root(s) required                10
      CI roots used                              1     2     3     4     5     6     7     8     9    10
      weights                                0.100 0.100 0.100 0.100 0.100 0.100 0.100 0.100 0.100 0.100
      highest root included in the CI           10
      Root passed to geometry opt.              10
--
 
++    Final optimization conditions:
      ------------------------------
 
      Average CI energy                            -398.35624861
      RASSCF energy for state 10                   -398.20861014
      Super-CI energy                                -0.00000000
      RASSCF energy change                           -0.00000000
      Max change in MO coefficients               0.569E-05
      Max non-diagonal density matrix element     0.337E-05
      Maximum BLB matrix element                  0.221E-06
      (orbital pair   7,  18 in symmetry   1)
      Norm of electronic gradient            0.785E-01
--
 
 
      Final state energy(ies):
      ------------------------
 
::    RASSCF root number  1 Total energy:   -398.69079613
::    RASSCF root number  2 Total energy:   -398.51018540
::    RASSCF root number  3 Total energy:   -398.47614657
::    RASSCF root number  4 Total energy:   -398.35193447
::    RASSCF root number  5 Total energy:   -398.34719447
::    RASSCF root number  6 Total energy:   -398.27934348
::    RASSCF root number  7 Total energy:   -398.26582451
::    RASSCF root number  8 Total energy:   -398.21688958
::    RASSCF root number  9 Total energy:   -398.21556141
::    RASSCF root number 10 Total energy:   -398.20861014
 
++    Molecular orbitals:
      -------------------
 
      Pseudonatural active orbitals and approximate occupation numbers
 
 
 
 
      Molecular orbitals for symmetry species 1: a  
 
 
      Orbital                 1         2         3         4         5         6         7         8         9        10
      Energy           -92.0338   -9.0336   -6.7127   -6.7124   -6.7117   -0.9218   -0.0000   -0.0000   -0.0005   -0.0002
      Occ. No.           2.0000    2.0000    2.0000    2.0000    2.0000    1.9851    1.6665    1.6743    1.4029    0.7107
 
     1 S1     1s         1.0000    0.0002    0.0000   -0.0000   -0.0000    0.0015   -0.0000    0.0009    0.0000   -0.0000
     2 S1     2s         0.0001    1.0012   -0.0022    0.0000   -0.0000    0.0106    0.0000    0.0018    0.0000   -0.0002
     3 S1     3s         0.0002    0.0021    0.0029   -0.0000   -0.0000    0.9530    0.0079   -0.2998    0.0000   -0.0004
     4 S1     *s        -0.0002   -0.0049   -0.0012    0.0000    0.0000   -0.0578    0.0018   -0.0841   -0.0000    0.0018
     5 S1     2px       -0.0000   -0.0001   -0.0415    0.0517    0.9978    0.0002   -0.0003    0.0003   -0.0021    0.0003
     6 S1     3px       -0.0000   -0.0001   -0.0000    0.0000    0.0004   -0.0045    0.0407   -0.0325    0.9795    0.0346
     7 S1     *px        0.0000    0.0001    0.0000   -0.0000    0.0001    0.0015   -0.0048    0.0026    0.0158    0.0167
     8 S1     2py        0.0000    0.0000    0.0139    0.9986   -0.0512   -0.0000   -0.0048   -0.0002    0.0001    0.0053
     9 S1     3py        0.0000    0.0000    0.0000    0.0006   -0.0000    0.0007    0.7745    0.0231   -0.0502    0.6748
    10 S1     *py       -0.0000   -0.0000   -0.0000   -0.0002   -0.0000   -0.0002   -0.0929   -0.0029   -0.0008    0.3263
    11 S1     2pz        0.0000    0.0027    0.9990   -0.0117    0.0422   -0.0046    0.0002   -0.0063   -0.0001   -0.0000
    12 S1     3pz        0.0001    0.0017    0.0010   -0.0000    0.0000    0.1071   -0.0220    0.7955    0.0414   -0.0004
    13 S1     *pz       -0.0001   -0.0030   -0.0004    0.0000    0.0000   -0.0359    0.0014   -0.0641    0.0007    0.0014
    14 S1     *d2-      -0.0000    0.0000    0.0000   -0.0000    0.0000    0.0006   -0.0026    0.0015    0.0001    0.0045
    15 S1     *d1-       0.0000    0.0000    0.0000    0.0003   -0.0000    0.0001    0.0601    0.0019   -0.0010   -0.1064
    16 S1     *d0       -0.0000    0.0001    0.0003   -0.0000    0.0000    0.0079   -0.0008    0.0320    0.0014   -0.0003
    17 S1     *d1+       0.0000   -0.0000   -0.0000    0.0000    0.0002   -0.0008    0.0032   -0.0029    0.0194   -0.0054
    18 S1     *d2+       0.0000   -0.0001   -0.0001   -0.0000   -0.0000   -0.0063    0.0002   -0.0149   -0.0008    0.0003
    19 H2     1s         0.0000   -0.0006    0.0010    0.0003   -0.0000    0.2066    0.4270    0.3773    0.0000   -0.5552
    20 H2     *s         0.0001    0.0020   -0.0004   -0.0002    0.0000   -0.0912   -0.0901   -0.1141   -0.0000   -0.4109
    21 H2     *px       -0.0000    0.0000    0.0000   -0.0000   -0.0000   -0.0001    0.0005   -0.0005    0.0133    0.0003
    22 H2     *py        0.0000    0.0004   -0.0000   -0.0000    0.0000   -0.0127   -0.0071   -0.0182   -0.0007    0.0008
    23 H2     *pz        0.0000    0.0005   -0.0001   -0.0000   -0.0000   -0.0134   -0.0204   -0.0094    0.0006   -0.0062
    24 H3     1s         0.0000   -0.0006    0.0010   -0.0004   -0.0000    0.2048   -0.4479    0.3514    0.0000    0.5578
    25 H3     *s         0.0001    0.0020   -0.0004    0.0002   -0.0000   -0.0904    0.0963   -0.1080    0.0000    0.4090
    26 H3     *px       -0.0000   -0.0000    0.0000   -0.0000   -0.0000    0.0012   -0.0013    0.0013    0.0132   -0.0002
    27 H3     *py       -0.0000   -0.0004    0.0000   -0.0000    0.0000    0.0126   -0.0081    0.0177   -0.0007    0.0008
    28 H3     *pz        0.0000    0.0005   -0.0001    0.0000   -0.0000   -0.0132    0.0208   -0.0082    0.0006    0.0061
 
 
      Orbital                11
      Energy             0.0086
      Occ. No.           0.5606
 
     1 S1     1s         0.0045
     2 S1     2s         0.0197
     3 S1     3s        -0.3439
     4 S1     *s        -0.5599
     5 S1     2px        0.0004
     6 S1     3px        0.0269
     7 S1     *px        0.0147
     8 S1     2py       -0.0000
     9 S1     3py       -0.0013
    10 S1     *py       -0.0022
    11 S1     2pz       -0.0099
    12 S1     3pz       -0.6382
    13 S1     *pz       -0.3508
    14 S1     *d2-       0.0036
    15 S1     *d1-       0.0007
    16 S1     *d0        0.0277
    17 S1     *d1+      -0.0035
    18 S1     *d2+      -0.0352
    19 H2     1s         0.4788
    20 H2     *s         0.4807
    21 H2     *px        0.0001
    22 H2     *py        0.0100
    23 H2     *pz        0.0108
    24 H3     1s         0.4782
    25 H3     *s         0.4748
    26 H3     *px       -0.0010
    27 H3     *py       -0.0099
    28 H3     *pz        0.0108
--
 
      Von Neumann Entropy (Root   1) =  0.28248
 

      Mulliken population analysis for root number:  1
      -----------------------------------------------
 
 
++    Molecular charges:
      ------------------
 
      Mulliken charges per centre and basis function type
      ---------------------------------------------------
 
                S1      H2      H3    
      1s       2.0000  1.1066  1.1055
      2s       2.0025  0.0000  0.0000
      2px      2.0000  0.0000  0.0000
      2pz      2.0000  0.0000  0.0000
      2py      2.0000  0.0000  0.0000
      3s       1.9692  0.0000  0.0000
      3px      1.9576  0.0000  0.0000
      3pz      1.3369  0.0000  0.0000
      3py      1.2157  0.0000  0.0000
      *s      -0.1030 -0.1712 -0.1698
      *px      0.0275  0.0042  0.0042
      *pz     -0.1769  0.0107  0.0106
      *py     -0.1979  0.0080  0.0079
      *d2+     0.0036  0.0000  0.0000
      *d1+     0.0011  0.0000  0.0000
      *d0      0.0083  0.0000  0.0000
      *d1-     0.0383  0.0000  0.0000
      *d2-     0.0001  0.0000  0.0000
      Total   16.0832  0.9584  0.9584
 
      N-E     -0.0832  0.0416  0.0416
 
      Total electronic charge=   18.000000
 
      Total            charge=   -0.000000
--
 
 

      Expectation values of various properties for root number:  1
      -----------------------------------------------------------
 
 
++    Molecular properties:
      ---------------------
 
      Charge (e):
                      =   -0.0000
      Dipole Moment (Debye):
      Origin of the operator (Ang)=    0.0000    0.0000    0.0000
                   X= -3.5552E-02               Y=  3.2014E-03               Z=  8.4440E-01           Total=  8.4515E-01
      Quadrupole Moment (Debye*Ang):
      Origin of the operator (Ang)=   -0.0030    0.0000    0.0709
                  XX= -1.6616E+01              XY=  1.7134E-01              XZ= -1.5280E-01              YY= -1.3286E+01
                  YZ=  6.5786E-03              ZZ= -1.3011E+01
      In traceless form (Debye*Ang)
                  XX= -3.4678E+00              XY=  2.5700E-01              XZ= -2.2920E-01              YY=  1.5279E+00
                  YZ=  9.8679E-03              ZZ=  1.9399E+00
--
 
      Von Neumann Entropy (Root   2) =  1.18387
 

      Mulliken population analysis for root number:  2
      -----------------------------------------------
 
 
++    Molecular charges:
      ------------------
 
      Mulliken charges per centre and basis function type
      ---------------------------------------------------
 
                S1      H2      H3    
      1s       2.0000  1.1515  1.1536
      2s       2.0025  0.0000  0.0000
      2px      2.0000  0.0000  0.0000
      2pz      2.0000  0.0000  0.0000
      2py      2.0000  0.0000  0.0000
      3s       1.9808  0.0000  0.0000
      3px      0.9839  0.0000  0.0000
      3pz      1.4267  0.0000  0.0000
      3py      1.7264  0.0000  0.0000
      *s      -0.0864 -0.1348 -0.1292
      *px      0.0137  0.0021  0.0021
      *pz     -0.1474  0.0134  0.0135
      *py     -0.0689  0.0088  0.0087
      *d2+     0.0032  0.0000  0.0000
      *d1+     0.0007  0.0000  0.0000
      *d0      0.0076  0.0000  0.0000
      *d1-     0.0673  0.0000  0.0000
      *d2-     0.0002  0.0000  0.0000
      Total   15.9103  1.0410  1.0488
 
      N-E      0.0897 -0.0410 -0.0488
 
      Total electronic charge=   18.000000
 
      Total            charge=   -0.000000
--
 
 

      Expectation values of various properties for root number:  2
      -----------------------------------------------------------
 
 
++    Molecular properties:
      ---------------------
 
      Charge (e):
                      =   -0.0000
      Dipole Moment (Debye):
      Origin of the operator (Ang)=    0.0000    0.0000    0.0000
                   X=  5.2347E-03               Y=  4.0516E-02               Z= -7.4627E-02           Total=  8.5077E-02
      Quadrupole Moment (Debye*Ang):
      Origin of the operator (Ang)=   -0.0030    0.0000    0.0709
                  XX= -1.3998E+01              XY= -1.5553E-01              XZ=  1.0876E-01              YY= -1.6936E+01
                  YZ=  9.9210E-02              ZZ= -1.6437E+01
      In traceless form (Debye*Ang)
                  XX=  2.6881E+00              XY= -2.3329E-01              XZ=  1.6314E-01              YY= -1.7186E+00
                  YZ=  1.4882E-01              ZZ= -9.6948E-01
--
 
      Von Neumann Entropy (Root   3) =  1.28442
 

      Mulliken population analysis for root number:  3
      -----------------------------------------------
 
 
++    Molecular charges:
      ------------------
 
      Mulliken charges per centre and basis function type
      ---------------------------------------------------
 
                S1      H2      H3    
      1s       2.0000  1.1206  1.1156
      2s       2.0024  0.0000  0.0000
      2px      2.0000  0.0000  0.0000
      2pz      2.0000  0.0000  0.0000
      2py      2.0000  0.0000  0.0000
      3s       2.0118  0.0000  0.0000
      3px      0.9835  0.0000  0.0000
      3pz      1.7130  0.0000  0.0000
      3py      1.3793  0.0000  0.0000
      *s      -0.1071 -0.0511 -0.0561
      *px      0.0136  0.0021  0.0022
      *pz     -0.0831  0.0150  0.0147
      *py     -0.1499  0.0117  0.0116
      *d2+     0.0074  0.0000  0.0000
      *d1+     0.0007  0.0000  0.0000
      *d0      0.0106  0.0000  0.0000
      *d1-     0.0313  0.0000  0.0000
      *d2-     0.0001  0.0000  0.0000
      Total   15.8136  1.0984  1.0880
 
      N-E      0.1864 -0.0984 -0.0880
 
      Total electronic charge=   18.000000
 
      Total            charge=   -0.000000
--
 
 

      Expectation values of various properties for root number:  3
      -----------------------------------------------------------
 
 
++    Molecular properties:
      ---------------------
 
      Charge (e):
                      =   -0.0000
      Dipole Moment (Debye):
      Origin of the operator (Ang)=    0.0000    0.0000    0.0000
                   X=  4.3957E-02               Y= -4.6795E-02               Z= -1.0960E+00           Total=  1.0979E+00
      Quadrupole Moment (Debye*Ang):
      Origin of the operator (Ang)=   -0.0030    0.0000    0.0709
                  XX= -1.4360E+01              XY= -1.1716E-01              XZ=  1.6851E-01              YY= -1.6736E+01
                  YZ= -1.2643E-01              ZZ= -1.8484E+01
      In traceless form (Debye*Ang)
                  XX=  3.2497E+00              XY= -1.7574E-01              XZ=  2.5276E-01              YY= -3.1324E-01
                  YZ= -1.8964E-01              ZZ= -2.9364E+00
--
 
      Von Neumann Entropy (Root   4) =  1.69057
 

      Mulliken population analysis for root number:  4
      -----------------------------------------------
 
 
++    Molecular charges:
      ------------------
 
      Mulliken charges per centre and basis function type
      ---------------------------------------------------
 
                S1      H2      H3    
      1s       2.0000  0.9885  1.0344
      2s       2.0025  0.0000  0.0000
      2px      2.0000  0.0000  0.0000
      2pz      2.0000  0.0000  0.0000
      2py      2.0000  0.0000  0.0000
      3s       1.9156  0.0000  0.0000
      3px      1.9411  0.0000  0.0000
      3pz      1.1557  0.0000  0.0000
      3py      1.1959  0.0000  0.0000
      *s      -0.1181 -0.0382 -0.0291
      *px      0.0277  0.0042  0.0042
      *pz     -0.0858  0.0119  0.0127
      *py     -0.0995  0.0087  0.0090
      *d2+     0.0052  0.0000  0.0000
      *d1+     0.0011  0.0000  0.0000
      *d0      0.0078  0.0000  0.0000
      *d1-     0.0445  0.0000  0.0000
      *d2-     0.0001  0.0000  0.0000
      Total   15.9938  0.9751  1.0311
 
      N-E      0.0062  0.0249 -0.0311
 
      Total electronic charge=   18.000000
 
      Total            charge=   -0.000000
--
 
 

      Expectation values of various properties for root number:  4
      -----------------------------------------------------------
 
 
++    Molecular properties:
      ---------------------
 
      Charge (e):
                      =   -0.0000
      Dipole Moment (Debye):
      Origin of the operator (Ang)=    0.0000    0.0000    0.0000
                   X=  2.5429E-02               Y=  2.2596E-01               Z= -3.2717E-01           Total=  3.9843E-01
      Quadrupole Moment (Debye*Ang):
      Origin of the operator (Ang)=   -0.0030    0.0000    0.0709
                  XX= -1.6962E+01              XY=  4.5310E-02              XZ= -1.6040E-02              YY= -1.5555E+01
                  YZ=  6.3870E-01              ZZ= -1.5811E+01
      In traceless form (Debye*Ang)
                  XX= -1.2789E+00              XY=  6.7964E-02              XZ= -2.4060E-02              YY=  8.3168E-01
                  YZ=  9.5805E-01              ZZ=  4.4721E-01
--
 
      Von Neumann Entropy (Root   5) =  1.69053
 

      Mulliken population analysis for root number:  5
      -----------------------------------------------
 
 
++    Molecular charges:
      ------------------
 
      Mulliken charges per centre and basis function type
      ---------------------------------------------------
 
                S1      H2      H3    
      1s       2.0000  1.0203  0.9723
      2s       2.0025  0.0000  0.0000
      2px      2.0000  0.0000  0.0000
      2pz      2.0000  0.0000  0.0000
      2py      2.0000  0.0000  0.0000
      3s       1.9702  0.0000  0.0000
      3px      1.9557  0.0000  0.0000
      3pz      1.1447  0.0000  0.0000
      3py      1.1491  0.0000  0.0000
      *s      -0.0971 -0.0324 -0.0407
      *px      0.0279  0.0042  0.0042
      *pz     -0.0903  0.0123  0.0113
      *py     -0.0934  0.0087  0.0083
      *d2+     0.0048  0.0000  0.0000
      *d1+     0.0011  0.0000  0.0000
      *d0      0.0075  0.0000  0.0000
      *d1-     0.0488  0.0000  0.0000
      *d2-     0.0001  0.0000  0.0000
      Total   16.0315  1.0132  0.9554
 
      N-E     -0.0315 -0.0132  0.0446
 
      Total electronic charge=   18.000000
 
      Total            charge=   -0.000000
--
 
 

      Expectation values of various properties for root number:  5
      -----------------------------------------------------------
 
 
++    Molecular properties:
      ---------------------
 
      Charge (e):
                      =   -0.0000
      Dipole Moment (Debye):
      Origin of the operator (Ang)=    0.0000    0.0000    0.0000
                   X= -1.2495E-02               Y= -2.3161E-01               Z=  1.4549E-02           Total=  2.3240E-01
      Quadrupole Moment (Debye*Ang):
      Origin of the operator (Ang)=   -0.0030    0.0000    0.0709
                  XX= -1.6996E+01              XY=  1.1112E-01              XZ= -9.0111E-02              YY= -1.5372E+01
                  YZ= -6.4650E-01              ZZ= -1.5659E+01
      In traceless form (Debye*Ang)
                  XX= -1.4804E+00              XY=  1.6669E-01              XZ= -1.3517E-01              YY=  9.5538E-01
                  YZ= -9.6975E-01              ZZ=  5.2499E-01
--
 
      Von Neumann Entropy (Root   6) =  1.64669
 

      Mulliken population analysis for root number:  6
      -----------------------------------------------
 
 
++    Molecular charges:
      ------------------
 
      Mulliken charges per centre and basis function type
      ---------------------------------------------------
 
                S1      H2      H3    
      1s       2.0000  1.0136  1.0109
      2s       2.0025  0.0000  0.0000
      2px      2.0000  0.0000  0.0000
      2pz      2.0000  0.0000  0.0000
      2py      2.0000  0.0000  0.0000
      3s       1.8958  0.0000  0.0000
      3px      1.9572  0.0000  0.0000
      3pz      1.2304  0.0000  0.0000
      3py      1.1628  0.0000  0.0000
      *s      -0.1637 -0.0324 -0.0290
      *px      0.0279  0.0042  0.0042
      *pz     -0.0975  0.0116  0.0115
      *py     -0.0837  0.0087  0.0086
      *d2+     0.0052  0.0000  0.0000
      *d1+     0.0011  0.0000  0.0000
      *d0      0.0081  0.0000  0.0000
      *d1-     0.0419  0.0000  0.0000
      *d2-     0.0001  0.0000  0.0000
      Total   15.9881  1.0057  1.0062
 
      N-E      0.0119 -0.0057 -0.0062
 
      Total electronic charge=   18.000000
 
      Total            charge=   -0.000000
--
 
 

      Expectation values of various properties for root number:  6
      -----------------------------------------------------------
 
 
++    Molecular properties:
      ---------------------
 
      Charge (e):
                      =   -0.0000
      Dipole Moment (Debye):
      Origin of the operator (Ang)=    0.0000    0.0000    0.0000
                   X= -1.5499E-02               Y=  3.6156E-03               Z=  3.7081E-01           Total=  3.7115E-01
      Quadrupole Moment (Debye*Ang):
      Origin of the operator (Ang)=   -0.0030    0.0000    0.0709
                  XX= -1.6986E+01              XY=  9.2906E-02              XZ= -5.1207E-02              YY= -1.5164E+01
                  YZ=  2.1727E-02              ZZ= -1.5756E+01
      In traceless form (Debye*Ang)
                  XX= -1.5262E+00              XY=  1.3936E-01              XZ= -7.6811E-02              YY=  1.2073E+00
                  YZ=  3.2590E-02              ZZ=  3.1891E-01
--
 
      Von Neumann Entropy (Root   7) =  1.39636
 

      Mulliken population analysis for root number:  7
      -----------------------------------------------
 
 
++    Molecular charges:
      ------------------
 
      Mulliken charges per centre and basis function type
      ---------------------------------------------------
 
                S1      H2      H3    
      1s       2.0000  1.2009  1.2000
      2s       2.0025  0.0000  0.0000
      2px      2.0000  0.0000  0.0000
      2pz      2.0000  0.0000  0.0000
      2py      2.0000  0.0000  0.0000
      3s       1.9473  0.0000  0.0000
      3px      0.2116  0.0000  0.0000
      3pz      1.7228  0.0000  0.0000
      3py      1.8140  0.0000  0.0000
      *s      -0.1151 -0.0216 -0.0229
      *px      0.0028  0.0005  0.0005
      *pz     -0.0550  0.0163  0.0161
      *py     -0.0325  0.0116  0.0115
      *d2+     0.0054  0.0000  0.0000
      *d1+     0.0004  0.0000  0.0000
      *d0      0.0084  0.0000  0.0000
      *d1-     0.0742  0.0000  0.0000
      *d2-     0.0002  0.0000  0.0000
      Total   15.5872  1.2076  1.2052
 
      N-E      0.4128 -0.2076 -0.2052
 
      Total electronic charge=   18.000000
 
      Total            charge=   -0.000000
--
 
 

      Expectation values of various properties for root number:  7
      -----------------------------------------------------------
 
 
++    Molecular properties:
      ---------------------
 
      Charge (e):
                      =   -0.0000
      Dipole Moment (Debye):
      Origin of the operator (Ang)=    0.0000    0.0000    0.0000
                   X=  8.5338E-02               Y= -1.0457E-02               Z= -2.0302E+00           Total=  2.0321E+00
      Quadrupole Moment (Debye*Ang):
      Origin of the operator (Ang)=   -0.0030    0.0000    0.0709
                  XX= -1.2170E+01              XY= -4.1457E-01              XZ=  3.8907E-01              YY= -2.0245E+01
                  YZ= -3.6689E-02              ZZ= -2.1375E+01
      In traceless form (Debye*Ang)
                  XX=  8.6401E+00              XY= -6.2186E-01              XZ=  5.8361E-01              YY= -3.4724E+00
                  YZ= -5.5034E-02              ZZ= -5.1677E+00
--
 
      Von Neumann Entropy (Root   8) =  1.73237
 

      Mulliken population analysis for root number:  8
      -----------------------------------------------
 
 
++    Molecular charges:
      ------------------
 
      Mulliken charges per centre and basis function type
      ---------------------------------------------------
 
                S1      H2      H3    
      1s       2.0000  1.0290  1.0291
      2s       2.0025  0.0000  0.0000
      2px      2.0000  0.0000  0.0000
      2pz      2.0000  0.0000  0.0000
      2py      2.0000  0.0000  0.0000
      3s       1.8796  0.0000  0.0000
      3px      1.8077  0.0000  0.0000
      3pz      1.3648  0.0000  0.0000
      3py      1.1353  0.0000  0.0000
      *s      -0.1537 -0.0402 -0.0423
      *px      0.0258  0.0039  0.0039
      *pz     -0.0808  0.0115  0.0113
      *py     -0.0724  0.0093  0.0092
      *d2+     0.0043  0.0000  0.0000
      *d1+     0.0011  0.0000  0.0000
      *d0      0.0073  0.0000  0.0000
      *d1-     0.0537  0.0000  0.0000
      *d2-     0.0001  0.0000  0.0000
      Total   15.9753  1.0134  1.0112
 
      N-E      0.0247 -0.0134 -0.0112
 
      Total electronic charge=   18.000000
 
      Total            charge=   -0.000000
--
 
 

      Expectation values of various properties for root number:  8
      -----------------------------------------------------------
 
 
++    Molecular properties:
      ---------------------
 
      Charge (e):
                      =   -0.0000
      Dipole Moment (Debye):
      Origin of the operator (Ang)=    0.0000    0.0000    0.0000
                   X= -1.3062E-02               Y= -6.3377E-03               Z=  3.0112E-01           Total=  3.0147E-01
      Quadrupole Moment (Debye*Ang):
      Origin of the operator (Ang)=   -0.0030    0.0000    0.0709
                  XX= -1.6512E+01              XY=  5.5813E-02              XZ= -8.8943E-03              YY= -1.5448E+01
                  YZ= -2.5602E-02              ZZ= -1.6336E+01
      In traceless form (Debye*Ang)
                  XX= -6.1988E-01              XY=  8.3719E-02              XZ= -1.3341E-02              YY=  9.7577E-01
                  YZ= -3.8403E-02              ZZ= -3.5589E-01
--
 
      Von Neumann Entropy (Root   9) =  2.05865
 

      Mulliken population analysis for root number:  9
      -----------------------------------------------
 
 
++    Molecular charges:
      ------------------
 
      Mulliken charges per centre and basis function type
      ---------------------------------------------------
 
                S1      H2      H3    
      1s       2.0000  1.0889  1.0662
      2s       2.0024  0.0000  0.0000
      2px      2.0000  0.0000  0.0000
      2pz      2.0000  0.0000  0.0000
      2py      2.0000  0.0000  0.0000
      3s       2.0074  0.0000  0.0000
      3px      0.9827  0.0000  0.0000
      3pz      1.5344  0.0000  0.0000
      3py      1.2404  0.0000  0.0000
      *s      -0.0794  0.0317  0.0386
      *px      0.0141  0.0021  0.0022
      *pz     -0.0583  0.0137  0.0133
      *py     -0.0068  0.0109  0.0107
      *d2+     0.0057  0.0000  0.0000
      *d1+     0.0007  0.0000  0.0000
      *d0      0.0085  0.0000  0.0000
      *d1-     0.0699  0.0000  0.0000
      *d2-     0.0002  0.0000  0.0000
      Total   15.7219  1.1472  1.1309
 
      N-E      0.2781 -0.1472 -0.1309
 
      Total electronic charge=   18.000000
 
      Total            charge=   -0.000000
--
 
 

      Expectation values of various properties for root number:  9
      -----------------------------------------------------------
 
 
++    Molecular properties:
      ---------------------
 
      Charge (e):
                      =   -0.0000
      Dipole Moment (Debye):
      Origin of the operator (Ang)=    0.0000    0.0000    0.0000
                   X=  6.3514E-02               Y= -4.9230E-02               Z= -1.5613E+00           Total=  1.5634E+00
      Quadrupole Moment (Debye*Ang):
      Origin of the operator (Ang)=   -0.0030    0.0000    0.0709
                  XX= -1.4493E+01              XY= -2.0337E-01              XZ=  2.5846E-01              YY= -1.8580E+01
                  YZ= -1.7285E-01              ZZ= -2.0792E+01
      In traceless form (Debye*Ang)
                  XX=  5.1925E+00              XY= -3.0506E-01              XZ=  3.8770E-01              YY= -9.3674E-01
                  YZ= -2.5927E-01              ZZ= -4.2557E+00
--
 
      Von Neumann Entropy (Root  10) =  2.08736
 

      Mulliken population analysis for root number: 10
      -----------------------------------------------
 
 
++    Molecular charges:
      ------------------
 
      Mulliken charges per centre and basis function type
      ---------------------------------------------------
 
                S1      H2      H3    
      1s       2.0000  1.0540  1.0753
      2s       2.0024  0.0000  0.0000
      2px      2.0000  0.0000  0.0000
      2pz      2.0000  0.0000  0.0000
      2py      2.0000  0.0000  0.0000
      3s       2.0056  0.0000  0.0000
      3px      0.9833  0.0000  0.0000
      3pz      1.1515  0.0000  0.0000
      3py      1.6342  0.0000  0.0000
      *s      -0.0865  0.0528  0.0449
      *px      0.0140  0.0021  0.0022
      *pz     -0.0493  0.0152  0.0154
      *py     -0.0169  0.0093  0.0094
      *d2+     0.0061  0.0000  0.0000
      *d1+     0.0007  0.0000  0.0000
      *d0      0.0080  0.0000  0.0000
      *d1-     0.0660  0.0000  0.0000
      *d2-     0.0002  0.0000  0.0000
      Total   15.7194  1.1335  1.1471
 
      N-E      0.2806 -0.1335 -0.1471
 
      Total electronic charge=   18.000000
 
      Total            charge=   -0.000000
--
 
 

      Expectation values of various properties for root number: 10
      -----------------------------------------------------------
 
 
++    Molecular properties:
      ---------------------
 
      Charge (e):
                      =   -0.0000
      Dipole Moment (Debye):
      Origin of the operator (Ang)=    0.0000    0.0000    0.0000
                   X=  7.9312E-02               Y=  3.6547E-02               Z= -1.8308E+00           Total=  1.8328E+00
      Quadrupole Moment (Debye*Ang):
      Origin of the operator (Ang)=   -0.0030    0.0000    0.0709
                  XX= -1.4541E+01              XY= -2.6753E-01              XZ=  2.3287E-01              YY= -1.9625E+01
                  YZ=  1.3109E-01              ZZ= -1.9864E+01
      In traceless form (Debye*Ang)
                  XX=  5.2035E+00              XY= -4.0129E-01              XZ=  3.4931E-01              YY= -2.4225E+00
                  YZ=  1.9664E-01              ZZ= -2.7810E+00
--
 
 
      Input file to MOLDEN was generated!
 
 
      Input file to MOLDEN was generated!
 
 
      Input file to MOLDEN was generated!
 
 
      Input file to MOLDEN was generated!
 
 
      Input file to MOLDEN was generated!
 
 
      Input file to MOLDEN was generated!
 
 
      Input file to MOLDEN was generated!
 
 
      Input file to MOLDEN was generated!
 
 
      Input file to MOLDEN was generated!
 
 
      Input file to MOLDEN was generated!
 
 
      Input file to MOLDEN was generated!
 
      Average orbitals are written to the RASORB file
      Natural orbitals for root   1 are written to the RASORB.1 file
      Natural orbitals for root   2 are written to the RASORB.2 file
      Natural orbitals for root   3 are written to the RASORB.3 file
      Natural orbitals for root   4 are written to the RASORB.4 file
      Natural orbitals for root   5 are written to the RASORB.5 file
      Natural orbitals for root   6 are written to the RASORB.6 file
      Natural orbitals for root   7 are written to the RASORB.7 file
      Natural orbitals for root   8 are written to the RASORB.8 file
      Natural orbitals for root   9 are written to the RASORB.9 file
      Natural orbitals for root  10 are written to the RASORB.10 file
      Spin density orbitals for root   1 are written to the SPDORB.1 file
      Spin density orbitals for root   2 are written to the SPDORB.2 file
      Spin density orbitals for root   3 are written to the SPDORB.3 file
      Spin density orbitals for root   4 are written to the SPDORB.4 file
      Spin density orbitals for root   5 are written to the SPDORB.5 file
      Spin density orbitals for root   6 are written to the SPDORB.6 file
      Spin density orbitals for root   7 are written to the SPDORB.7 file
      Spin density orbitals for root   8 are written to the SPDORB.8 file
      Spin density orbitals for root   9 are written to the SPDORB.9 file
      Spin density orbitals for root  10 are written to the SPDORB.10 file
 
 ###############################################################################
 ###############################################################################
 ###                                                                         ###
 ###                                                                         ###
 ###    WARNING: RunFile label BirthCertificate                              ###
 ###    was used       51 times                                              ###
 ###                                                                         ###
 ###                                                                         ###
 ###############################################################################
 ###############################################################################
 ###############################################################################
 ###############################################################################
 ###                                                                         ###
 ###                                                                         ###
 ###    WARNING: RunFile label nBas                                          ###
 ###    was used       59 times                                              ###
 ###                                                                         ###
 ###                                                                         ###
 ###############################################################################
 ###############################################################################
--- Stop Module: rasscf at Wed Mar 27 10:53:05 2024 /rc=_RC_ALL_IS_WELL_ ---
--- Module rasscf spent 3 seconds ---

*** symbolic link created: INPORB -> MOLCAS.RasOrb
--- Start Module: caspt2 at Wed Mar 27 10:53:05 2024 ---
 
()()()()()()()()()()()()()()()()()()()()()()()()()()()()()()()()()()()()()()()()()()()()()()()()()()

                                              &CASPT2

                                   only a single process is used
                       available to each process: 10 GB of memory, 1 thread?
                                            pid: 732239
()()()()()()()()()()()()()()()()()()()()()()()()()()()()()()()()()()()()()()()()()()()()()()()()()()
 
 ###############################################################################
 ###############################################################################
 ###                                                                         ###
 ###                                                                         ###
 ###    WARNING: Too large iRlxRoot.                                         ###
 ###                                                                         ###
 ###                                                                         ###
 ###############################################################################
 ###############################################################################
  Reset to NSTATE=                     6
 
++    Wave function specifications:
      -----------------------------
 
      Number of closed shell electrons           0
      Number of electrons in active shells       8
      Max number of holes in RAS1 space          0
      Max number of electrons in RAS3 space      0
      Number of inactive orbitals                0
      Number of active orbitals                  6
      Number of secondary orbitals              17
      Spin quantum number                      0.0
      State symmetry                             1
      Number of CSFs                           105
      Number of CASSCF root(s) available        10
      CASPT2 state passed to geometry opt.       6
      A file JOBMIX will be created
      This is a MULTI-STATE CASSCF reference
      Number of CI roots used                    6
      These are:                                 1   2   3   4   5   6
      Off-diagonal elements of Heff are computed
--
 
++    Orbital specifications:
      -----------------------
 
      Symmetry species                           1
                                                 a
      Frozen orbitals                            5
      Inactive orbitals                          0
      Active orbitals                            6
      Secondary orbitals                        17
      Deleted orbitals                           0
      Number of basis functions                 28
--
 
++    CASPT2 specifications:
      ----------------------
 
      Type of calculation                        MS-CASPT2
      Fock operator                              state-specific
      IPEA shift                                 0.25
      Real shift                                 0.00
      Imaginary shift                            0.00
      The input orbitals will be transformed to quasi-canonical
--
 
--------------------------------------------------------------------------------
 Estimated memory requirements:
  POLY3 :                   257654
  RHS:                      259460
  SIGMA :                   264688
  PRPCTL:                        0
 Available workspace:   1124990452
 
++ CASPT2 computation for group   1
 
********************************************************************************
 Multi-State initialization phase begins for group   1
--------------------------------------------------------------------------------
********************************************************************************
 Compute H0 matrices for state    1
--------------------------------------------------------------------------------
--------------------------------------------------------------------------------
 H0 matrices have been computed.
 
********************************************************************************
  CASPT2 EQUATION SOLUTION
--------------------------------------------------------------------------------
 
  Total nr of CASPT2 parameters:
   Before reduction:        8925
   After  reduction:        8466
 
 Variance of |WF0>:       0.3248020201
 
 The contributions to the second order correlation energy in atomic units.
-----------------------------------------------------------------------------------------------------------------------------
  IT.      VJTU        VJTI        ATVX        AIVX        VJAI        BVAT        BJAT        BJAI        TOTAL       RNORM  
-----------------------------------------------------------------------------------------------------------------------------
   1     0.000000    0.000000   -0.044133    0.000000    0.000000   -0.082930    0.000000    0.000000   -0.127062    0.000633
   2     0.000000    0.000000   -0.044192    0.000000    0.000000   -0.082931    0.000000    0.000000   -0.127123    0.000026
   3     0.000000    0.000000   -0.044194    0.000000    0.000000   -0.082931    0.000000    0.000000   -0.127124    0.000001
-----------------------------------------------------------------------------------------------------------------------------
 
  FINAL CASPT2 RESULT:
 
      Reference energy:        -398.6907961259
      E2 (Non-variational):      -0.1271242291
      E2 (Variational):          -0.1271242280
      Total energy:            -398.8179203539
      Residual norm:              0.0000000437
      Reference weight:           0.94969
 
      Contributions to the CASPT2 correlation energy
      Active & Virtual Only:         -0.1271242291
      One Inactive Excited:           0.0000000000
      Two Inactive Excited:           0.0000000000
 
 
++ Denominators, etc.
--------------------------------------------------------------------------------------------------------------
 Report on small energy denominators, large coefficients, and large energy contributions.
CASE  SYMM ACTIVE-MIX  NON-ACTIVE INDICES          DENOMINATOR     RHS VALUE       COEFFICIENT     CONTRIBUTION
ATVX     1  Mu1.0020  Se1.013                       1.69591868     -0.06115723      0.03482789     -0.00212998
ATVX     1  Mu1.0013  Se1.015                       1.69851955     -0.04684197      0.02647745     -0.00124026
ATVX     1  Mu1.0015  Se1.016                       1.82416959      0.06921553     -0.03763785     -0.00260512
ATVX     1  Mu1.0012  Se1.018                       1.78267704      0.04584247     -0.02544844     -0.00116662
ATVX     1  Mu1.0026  Se1.018                       2.23135518      0.05982080     -0.02637301     -0.00157765
ATVX     1  Mu1.0007  Se1.019                       1.74969693     -0.04595935      0.02609438     -0.00119928
ATVX     1  Mu1.0009  Se1.019                       1.76375596     -0.05333733      0.03007031     -0.00160387
ATVX     1  Mu1.0024  Se1.019                       2.20968744     -0.05866646      0.02622789     -0.00153870
BVATP    1  Mu1.0005  Se1.013 Se1.012               2.04754744     -0.05233817      0.02505716     -0.00131145
BVATP    1  Mu1.0001  Se1.015 Se1.015               2.15061342      0.07345984     -0.03397401     -0.00249573
BVATP    1  Mu1.0006  Se1.016 Se1.016               2.47275691     -0.06895497      0.02786938     -0.00192173
BVATP    1  Mu1.0001  Se1.018 Se1.018               2.33342386      0.07501884     -0.03213681     -0.00241087
BVATP    1  Mu1.0001  Se1.019 Se1.019               2.35788035      0.07605577     -0.03225599     -0.00245325
BVATM    1  Mu1.0001  Se1.015 Se1.014               2.21936020      0.06323196     -0.02767865     -0.00175018
BVATM    1  Mu1.0001  Se1.018 Se1.013               2.20922415     -0.07875413      0.03486103     -0.00274545
BVATM    1  Mu1.0002  Se1.019 Se1.013               2.22803446      0.06122446     -0.02697681     -0.00165164
BVATM    1  Mu1.0002  Se1.019 Se1.016               2.40451790      0.06644837     -0.02750229     -0.00182748
BVATM    1  Mu1.0002  Se1.020 Se1.019               2.46511928     -0.06395446      0.02633055     -0.00168396
--
 
   (Skipping property calculation,
    use PROP keyword to activate)
--
 
++ CASPT2 computation for group   2
 
********************************************************************************
 Multi-State initialization phase begins for group   2
--------------------------------------------------------------------------------
********************************************************************************
 Compute H0 matrices for state    2
--------------------------------------------------------------------------------
--------------------------------------------------------------------------------
 H0 matrices have been computed.
 
********************************************************************************
  CASPT2 EQUATION SOLUTION
--------------------------------------------------------------------------------
 
  Total nr of CASPT2 parameters:
   Before reduction:        8925
   After  reduction:        7820
 
 Variance of |WF0>:       0.3203029363
 
 The contributions to the second order correlation energy in atomic units.
-----------------------------------------------------------------------------------------------------------------------------
  IT.      VJTU        VJTI        ATVX        AIVX        VJAI        BVAT        BJAT        BJAI        TOTAL       RNORM  
-----------------------------------------------------------------------------------------------------------------------------
   1     0.000000    0.000000   -0.050687    0.000000    0.000000   -0.078136    0.000000    0.000000   -0.128823    0.000539
   2     0.000000    0.000000   -0.050735    0.000000    0.000000   -0.078140    0.000000    0.000000   -0.128875    0.000025
-----------------------------------------------------------------------------------------------------------------------------
 
  FINAL CASPT2 RESULT:
 
      Reference energy:        -398.5101853957
      E2 (Non-variational):      -0.1288761993
      E2 (Variational):          -0.1288761405
      Total energy:            -398.6390615362
      Residual norm:              0.0000009449
      Reference weight:           0.94659
 
      Contributions to the CASPT2 correlation energy
      Active & Virtual Only:         -0.1288761993
      One Inactive Excited:           0.0000000000
      Two Inactive Excited:           0.0000000000
 
 
++ Denominators, etc.
--------------------------------------------------------------------------------------------------------------
 Report on small energy denominators, large coefficients, and large energy contributions.
CASE  SYMM ACTIVE-MIX  NON-ACTIVE INDICES          DENOMINATOR     RHS VALUE       COEFFICIENT     CONTRIBUTION
ATVX     1  Mu1.0026  Se1.013                       1.63142720     -0.07586985      0.04635911     -0.00351726
ATVX     1  Mu1.0027  Se1.016                       1.80618358     -0.06497395      0.03602312     -0.00234056
ATVX     1  Mu1.0046  Se1.018                       2.18725131     -0.05939879      0.02704830     -0.00160664
ATVX     1  Mu1.0048  Se1.019                       2.23365831     -0.06020882      0.02685225     -0.00161674
ATVX     1  Mu1.0008  Se1.020                       1.36153457      0.04382003     -0.03196785     -0.00140083
ATVX     1  Mu1.0009  Se1.021                       1.66925595      0.07863841     -0.04685916     -0.00368493
ATVX     1  Mu1.0008  Se1.022                       1.67541652      0.06615281     -0.03915443     -0.00259018
BVATP    1  Mu1.0008  Se1.016 Se1.016               2.50503522      0.07043990     -0.02805469     -0.00197617
BVATM    1  Mu1.0005  Se1.016 Se1.012               2.26527051     -0.05988808      0.02633892     -0.00157739
BVATM    1  Mu1.0003  Se1.018 Se1.013               2.18578483     -0.06383443      0.02870880     -0.00183261
--
 
   (Skipping property calculation,
    use PROP keyword to activate)
--
 
++ CASPT2 computation for group   3
 
********************************************************************************
 Multi-State initialization phase begins for group   3
--------------------------------------------------------------------------------
********************************************************************************
 Compute H0 matrices for state    3
--------------------------------------------------------------------------------
--------------------------------------------------------------------------------
 H0 matrices have been computed.
 
********************************************************************************
  CASPT2 EQUATION SOLUTION
--------------------------------------------------------------------------------
 
  Total nr of CASPT2 parameters:
   Before reduction:        8925
   After  reduction:        7820
 
 Variance of |WF0>:       0.3198461362
 
 The contributions to the second order correlation energy in atomic units.
-----------------------------------------------------------------------------------------------------------------------------
  IT.      VJTU        VJTI        ATVX        AIVX        VJAI        BVAT        BJAT        BJAI        TOTAL       RNORM  
-----------------------------------------------------------------------------------------------------------------------------
   1     0.000000    0.000000   -0.055615    0.000000    0.000000   -0.078919    0.000000    0.000000   -0.134534    0.000786
   2     0.000000    0.000000   -0.055681    0.000000    0.000000   -0.078944    0.000000    0.000000   -0.134625    0.000031
   3     0.000000    0.000000   -0.055682    0.000000    0.000000   -0.078945    0.000000    0.000000   -0.134628    0.000001
-----------------------------------------------------------------------------------------------------------------------------
 
  FINAL CASPT2 RESULT:
 
      Reference energy:        -398.4761465653
      E2 (Non-variational):      -0.1346274739
      E2 (Variational):          -0.1346274710
      Total energy:            -398.6107740363
      Residual norm:              0.0000000529
      Reference weight:           0.93750
 
      Contributions to the CASPT2 correlation energy
      Active & Virtual Only:         -0.1346274739
      One Inactive Excited:           0.0000000000
      Two Inactive Excited:           0.0000000000
 
 
++ Denominators, etc.
--------------------------------------------------------------------------------------------------------------
 Report on small energy denominators, large coefficients, and large energy contributions.
CASE  SYMM ACTIVE-MIX  NON-ACTIVE INDICES          DENOMINATOR     RHS VALUE       COEFFICIENT     CONTRIBUTION
ATVX     1  Mu1.0001  Se1.013                       0.55329192     -0.04926562      0.08774201     -0.00432266
ATVX     1  Mu1.0027  Se1.013                       1.64768050      0.06476006     -0.03894854     -0.00252231
ATVX     1  Mu1.0038  Se1.013                       1.74567692     -0.04585727      0.02591240     -0.00118827
ATVX     1  Mu1.0030  Se1.016                       1.81080267     -0.05826853      0.03223600     -0.00187834
ATVX     1  Mu1.0034  Se1.017                       1.87328400     -0.05260371      0.02773224     -0.00145882
ATVX     1  Mu1.0002  Se1.018                       0.99403783     -0.03442790      0.03294277     -0.00113415
ATVX     1  Mu1.0052  Se1.018                       2.23477427     -0.06195015      0.02762154     -0.00171116
ATVX     1  Mu1.0003  Se1.019                       1.07944750      0.02839291     -0.02559662     -0.00072676
ATVX     1  Mu1.0048  Se1.019                       2.18803971      0.06634037     -0.03017882     -0.00200207
ATVX     1  Mu1.0027  Se1.020                       1.85552040      0.06594592     -0.03544935     -0.00233774
ATVX     1  Mu1.0009  Se1.022                       1.68817009     -0.05614424      0.03274359     -0.00183836
BVATP    1  Mu1.0008  Se1.014 Se1.014               2.29603659      0.05882151     -0.02542226     -0.00149538
BVATP    1  Mu1.0008  Se1.018 Se1.018               2.53095941      0.06528313     -0.02586475     -0.00168853
BVATM    1  Mu1.0005  Se1.016 Se1.012               2.23209963     -0.06338640      0.02801791     -0.00177595
BVATM    1  Mu1.0004  Se1.018 Se1.013               2.19686154      0.06485276     -0.02870802     -0.00186179
--
 
   (Skipping property calculation,
    use PROP keyword to activate)
--
 
++ CASPT2 computation for group   4
 
********************************************************************************
 Multi-State initialization phase begins for group   4
--------------------------------------------------------------------------------
********************************************************************************
 Compute H0 matrices for state    4
--------------------------------------------------------------------------------
--------------------------------------------------------------------------------
 H0 matrices have been computed.
 
********************************************************************************
  CASPT2 EQUATION SOLUTION
--------------------------------------------------------------------------------
 
  Total nr of CASPT2 parameters:
   Before reduction:        8925
   After  reduction:        8466
 
 Variance of |WF0>:       0.3161159692
 
 The contributions to the second order correlation energy in atomic units.
-----------------------------------------------------------------------------------------------------------------------------
  IT.      VJTU        VJTI        ATVX        AIVX        VJAI        BVAT        BJAT        BJAI        TOTAL       RNORM  
-----------------------------------------------------------------------------------------------------------------------------
   1     0.000000    0.000000   -0.050446    0.000000    0.000000   -0.085715    0.000000    0.000000   -0.136161    0.000721
   2     0.000000    0.000000   -0.050497    0.000000    0.000000   -0.085747    0.000000    0.000000   -0.136245    0.000030
   3     0.000000    0.000000   -0.050498    0.000000    0.000000   -0.085748    0.000000    0.000000   -0.136246    0.000001
-----------------------------------------------------------------------------------------------------------------------------
 
  FINAL CASPT2 RESULT:
 
      Reference energy:        -398.3519344702
      E2 (Non-variational):      -0.1362461445
      E2 (Variational):          -0.1362461424
      Total energy:            -398.4881806126
      Residual norm:              0.0000000549
      Reference weight:           0.93750
 
      Contributions to the CASPT2 correlation energy
      Active & Virtual Only:         -0.1362461445
      One Inactive Excited:           0.0000000000
      Two Inactive Excited:           0.0000000000
 
 
++ Denominators, etc.
--------------------------------------------------------------------------------------------------------------
 Report on small energy denominators, large coefficients, and large energy contributions.
CASE  SYMM ACTIVE-MIX  NON-ACTIVE INDICES          DENOMINATOR     RHS VALUE       COEFFICIENT     CONTRIBUTION
ATVX     1  Mu1.0002  Se1.013                       0.47352846     -0.02139152      0.04469821     -0.00095616
ATVX     1  Mu1.0015  Se1.013                       1.05815538      0.02934204     -0.02739645     -0.00080387
ATVX     1  Mu1.0022  Se1.013                       1.12884142     -0.03173174      0.02764207     -0.00087713
ATVX     1  Mu1.0014  Se1.016                       1.19524366      0.03054026     -0.02526813     -0.00077170
ATVX     1  Mu1.0020  Se1.018                       1.31389919      0.04630006     -0.03515379     -0.00162762
ATVX     1  Mu1.0052  Se1.018                       1.97496441      0.05271216     -0.02659791     -0.00140203
ATVX     1  Mu1.0042  Se1.019                       1.83134243     -0.06044218      0.03293878     -0.00199089
ATVX     1  Mu1.0009  Se1.021                       1.48743640      0.04062459     -0.02711969     -0.00110173
ATVX     1  Mu1.0019  Se1.021                       1.59893078     -0.04805389      0.02992228     -0.00143788
ATVX     1  Mu1.0022  Se1.021                       1.61425364      0.04774664     -0.02930294     -0.00139912
BVATP    1  Mu1.0006  Se1.015 Se1.015               2.15275092      0.07322855     -0.03400162     -0.00248989
BVATP    1  Mu1.0006  Se1.018 Se1.018               2.31697220      0.07569057     -0.03265540     -0.00247171
BVATP    1  Mu1.0006  Se1.019 Se1.019               2.34567827      0.07501277     -0.03197712     -0.00239869
--
 
   (Skipping property calculation,
    use PROP keyword to activate)
--
 
++ CASPT2 computation for group   5
 
********************************************************************************
 Multi-State initialization phase begins for group   5
--------------------------------------------------------------------------------
********************************************************************************
 Compute H0 matrices for state    5
--------------------------------------------------------------------------------
--------------------------------------------------------------------------------
 H0 matrices have been computed.
 
********************************************************************************
  CASPT2 EQUATION SOLUTION
--------------------------------------------------------------------------------
 
  Total nr of CASPT2 parameters:
   Before reduction:        8925
   After  reduction:        8466
 
 Variance of |WF0>:       0.3223747320
 
 The contributions to the second order correlation energy in atomic units.
-----------------------------------------------------------------------------------------------------------------------------
  IT.      VJTU        VJTI        ATVX        AIVX        VJAI        BVAT        BJAT        BJAI        TOTAL       RNORM  
[...]
  Sum of SVs (Omega):               0.904318
  Participation ratio (PR_NTO):     1.000057
  Entanglement entropy (S_HE):      0.131643
  Nr of entangled states (Z_HE):    1.095541
  Renormalized S_HE/Z_HE:  0.000473 /  1.000328

CT numbers (Mulliken)
  omega        =     0.9160 (alpha:     0.0116, beta:     0.9043)
 2<alpha|beta> =    -0.0159
  LOC          =     0.0039 (alpha:     0.0001, beta:     0.0038)
  <Phe>        =     0.0202 (alpha:     0.7869, beta:     0.0104)

CT numbers (Lowdin)
  omega        =     0.9160 (alpha:     0.0116, beta:     0.9043)
 2<alpha|beta> =    -0.0159
  LOC          =     0.0019 (alpha:     0.0000, beta:     0.0018)
  <Phe>        =     0.0202 (alpha:     0.7869, beta:     0.0104)

Exciton analysis of the transition density matrix
Total:
  Trans. dipole moment [D]:             0.010877
    Cartesian components [D]:         [  0.010853,  -0.000557,   0.000459]
  Transition <r^2> [a.u.]:              0.102877
    Cartesian components [a.u.]:      [  0.072357,  -0.073127,   0.000769]
  <r_h> [Ang]:                        [ -0.020883,   0.003078,   0.498275]
  <r_e> [Ang]:                        [ -0.001412,   0.000037,   0.034276]
  |<r_e - r_h>| [Ang]:                  0.464418
  Hole size [Ang]:                      1.241856
    Cartesian components [Ang]:       [  0.476649,   0.951702,   0.639746]
  Electron size [Ang]:                  1.144157
    Cartesian components [Ang]:       [  0.873622,   0.521164,   0.523707]
  RMS electron-hole separation [Ang]:   1.752505
    Cartesian components [Ang]:       [  0.995387,   1.085061,   0.950327]
  Covariance(r_h, r_e) [Ang^2]:        -0.002145
  Correlation coefficient:             -0.001510
  Center-of-mass size [Ang]:            0.843654
    Cartesian components [Ang]:       [  0.497595,   0.542529,   0.412086]

Alpha spin:
  Trans. dipole moment [D]:             0.000005
    Cartesian components [D]:         [ -0.000005,   0.000000,  -0.000000]
  Transition <r^2> [a.u.]:              0.008429
    Cartesian components [a.u.]:      [ -0.005962,   0.005958,   0.000005]
  <r_h> [Ang]:                        [ -0.003619,  -0.000282,   0.086049]
  <r_e> [Ang]:                        [ -0.016636,  -0.004521,   0.388661]
  |<r_e - r_h>| [Ang]:                  0.302922
  Hole size [Ang]:                      1.203083
    Cartesian components [Ang]:       [  0.813460,   0.626937,   0.626612]
  Electron size [Ang]:                  1.407830
    Cartesian components [Ang]:       [  0.570404,   0.922882,   0.897170]
  RMS electron-hole separation [Ang]:   1.887242
    Cartesian components [Ang]:       [  0.993640,   1.115699,   1.153074]
  Covariance(r_h, r_e) [Ang^2]:        -0.020264
  Correlation coefficient:             -0.011964
  Center-of-mass size [Ang]:            0.920444
    Cartesian components [Ang]:       [  0.496740,   0.557844,   0.537845]

Beta spin:
  Trans. dipole moment [D]:             0.010882
    Cartesian components [D]:         [  0.010858,  -0.000557,   0.000459]
  Transition <r^2> [a.u.]:              0.111306
    Cartesian components [a.u.]:      [  0.078320,  -0.079085,   0.000764]
  <r_h> [Ang]:                        [ -0.021105,   0.003121,   0.503585]
  <r_e> [Ang]:                        [ -0.001216,   0.000096,   0.029711]
  |<r_e - r_h>| [Ang]:                  0.474301
  Hole size [Ang]:                      1.241453
    Cartesian components [Ang]:       [  0.470736,   0.955165,   0.638178]
  Electron size [Ang]:                  1.139643
    Cartesian components [Ang]:       [  0.876842,   0.513944,   0.515552]
  RMS electron-hole separation [Ang]:   1.750702
    Cartesian components [Ang]:       [  0.995410,   1.084661,   0.947432]
  Covariance(r_h, r_e) [Ang^2]:        -0.000002
  Correlation coefficient:             -0.000002
  Center-of-mass size [Ang]:            0.842613
    Cartesian components [Ang]:       [  0.497606,   0.542328,   0.410201]

  RASSI analysis for state D4
  ---------------------------
Energy: 7.2517 eV

Using spin-traced density matrices ...

NOs
  Occupation of frontier NOs:
     0.0538   0.0626   0.9878   1.9499   1.9683   1.9776
  Number of electrons: 17.000000
  Number of unpaired electrons: n_u =  1.20834, n_u,nl =  1.04075
  NO participation ratio (PR_NO):  1.479908

NDOs
  Leading detachment eigenvalues:
    -0.9462  -0.0920  -0.0250
  Leading attachment eigenvalues:
     0.9666   0.1163   0.0000
  Number of detached / attached electrons: p_D =  1.0829, p_A =  1.0829
  Number of involved orbitals: PR_D =  1.296014, PR_A =  1.237259

Mulliken Population Analysis
    Atom      Charge (e)              h+              e-           Del q
------------------------------------------------------------------------
1 S1            0.794986        0.964382       -0.712225        0.252157
2 H2            0.107014        0.058942       -0.180302       -0.121360
3 H3            0.098000        0.059571       -0.190368       -0.130797
------------------------------------------------------------------------
    Sum:        1.000000        1.082895       -1.082895       -0.000000

Lowdin Population Analysis
    Atom      Charge (e)              h+              e-           Del q
------------------------------------------------------------------------
1 S1            0.912474        0.984042       -0.670921        0.313121
2 H2            0.048487        0.049132       -0.200591       -0.151459
3 H3            0.039039        0.049721       -0.211383       -0.161662
------------------------------------------------------------------------
    Sum:        1.000000        1.082895       -1.082895       -0.000000

Multipole moment analysis of the density matrix
  Molecular charge:                      1.000000
  Number of electrons:                   17.000000
    Center of electronic charge [Ang]: [ -0.005172,  -0.000458,   0.122570]
  Total nuclear charge:                  18.000000
    Center of nuclear charge [Ang]:    [ -0.005882,   0.000000,   0.139960]
  Dipole moment [D]:                     1.421632
    Cartesian components [D]:          [ -0.057974,   0.037363,   1.419958]
  RMS size of the density [Ang]:         0.816449
    Cartesian components [Ang]:        [  0.336230,   0.513509,   0.538374]

Exciton analysis of the difference density matrix
  <r_h> [Ang]:                  [ -0.005754,  -0.000688,   0.136035]
  <r_e> [Ang]:                  [ -0.014848,  -0.007818,   0.342397]
  |<r_e - r_h>| [Ang]:            0.206686
  Hole size [Ang]:                1.204485
    Cartesian components [Ang]: [  0.838912,   0.594714,   0.627158]
  Electron size [Ang]:            1.392560
    Cartesian components [Ang]: [  0.473874,   0.935360,   0.916388]

  RASSI analysis for transiton from state 1 to 4 (D1-D4)
  ------------------------------------------------------
Energy: 7.2517 eV

NTOs (alpha)
  Leading SVs:
     0.8833   0.0000   0.0000
  Sum of SVs (Omega):               0.883288
  Participation ratio (PR_NTO):     1.000056
  Entanglement entropy (S_HE):      0.158558
  Nr of entangled states (Z_HE):    1.116171
  Renormalized S_HE/Z_HE:  0.000465 /  1.000322
NTOs (beta)
  Leading SVs:
     0.0105   0.0023   0.0000
  Sum of SVs (Omega):               0.012876
  Participation ratio (PR_NTO):     1.423386
  Entanglement entropy (S_HE):      0.089655
  Nr of entangled states (Z_HE):    1.064116
  Renormalized S_HE/Z_HE:  0.683917 /  1.606496

CT numbers (Mulliken)
  omega        =     0.8962 (alpha:     0.8833, beta:     0.0129)
 2<alpha|beta> =    -0.0170
  LOC          =     0.0020 (alpha:     0.0020, beta:     0.0000)
  <Phe>        =    -0.0209 (alpha:    -0.0104, beta:    -0.7414)

CT numbers (Lowdin)
  omega        =     0.8962 (alpha:     0.8833, beta:     0.0129)
 2<alpha|beta> =    -0.0170
  LOC          =     0.0011 (alpha:     0.0011, beta:     0.0000)
  <Phe>        =    -0.0209 (alpha:    -0.0104, beta:    -0.7414)

Exciton analysis of the transition density matrix
Total:
  Trans. dipole moment [D]:             0.002239
    Cartesian components [D]:         [ -0.002234,   0.000115,  -0.000095]
  Transition <r^2> [a.u.]:              0.052813
    Cartesian components [a.u.]:      [  0.037423,  -0.037265,  -0.000158]
  <r_h> [Ang]:                        [ -0.001504,   0.000309,   0.036785]
  <r_e> [Ang]:                        [ -0.021904,  -0.013290,   0.502577]
  |<r_e - r_h>| [Ang]:                  0.466436
  Hole size [Ang]:                      1.142973
    Cartesian components [Ang]:       [  0.873147,   0.521951,   0.521123]
  Electron size [Ang]:                  1.454660
    Cartesian components [Ang]:       [  0.472197,   0.999948,   0.945076]
  RMS electron-hole separation [Ang]:   1.909630
    Cartesian components [Ang]:       [  0.992866,   1.128055,   1.178302]
  Covariance(r_h, r_e) [Ang^2]:        -0.003350
  Correlation coefficient:             -0.002015
  Center-of-mass size [Ang]:            0.924084
    Cartesian components [Ang]:       [  0.496323,   0.563989,   0.538062]

Alpha spin:
  Trans. dipole moment [D]:             0.003565
    Cartesian components [D]:         [  0.003557,  -0.000182,   0.000150]
  Transition <r^2> [a.u.]:              0.047405
    Cartesian components [a.u.]:      [  0.033627,  -0.033413,  -0.000215]
  <r_h> [Ang]:                        [ -0.001217,   0.000096,   0.029725]
  <r_e> [Ang]:                        [ -0.022174,  -0.013450,   0.508774]
  |<r_e - r_h>| [Ang]:                  0.479699
  Hole size [Ang]:                      1.139658
    Cartesian components [Ang]:       [  0.876842,   0.513953,   0.515578]
  Electron size [Ang]:                  1.457665
    Cartesian components [Ang]:       [  0.465234,   1.004560,   0.948265]
  RMS electron-hole separation [Ang]:   1.911475
    Cartesian components [Ang]:       [  0.992841,   1.128482,   1.180903]
  Covariance(r_h, r_e) [Ang^2]:        -0.000009
  Correlation coefficient:             -0.000006
  Center-of-mass size [Ang]:            0.925147
    Cartesian components [Ang]:       [  0.496310,   0.564200,   0.539678]

Beta spin:
  Trans. dipole moment [D]:             0.005804
    Cartesian components [D]:         [ -0.005791,   0.000297,  -0.000245]
  Transition <r^2> [a.u.]:              0.005408
    Cartesian components [a.u.]:      [  0.003795,  -0.003852,   0.000057]
  <r_h> [Ang]:                        [ -0.021240,   0.014959,   0.521124]
  <r_e> [Ang]:                        [ -0.003359,  -0.002335,   0.077432]
  |<r_e - r_h>| [Ang]:                  0.444388
  Hole size [Ang]:                      1.259719
    Cartesian components [Ang]:       [  0.564194,   0.916861,   0.654174]
  Electron size [Ang]:                  1.153975
    Cartesian components [Ang]:       [  0.818794,   0.604608,   0.543768]
  RMS electron-hole separation [Ang]:   1.778448
    Cartesian components [Ang]:       [  0.994519,   1.098368,   0.983563]
  Covariance(r_h, r_e) [Ang^2]:        -0.023422
  Correlation coefficient:             -0.016112
  Center-of-mass size [Ang]:            0.847305
    Cartesian components [Ang]:       [  0.497174,   0.549149,   0.411315]

  RASSI analysis for state D5
  ---------------------------
Energy: 8.0609 eV

Using spin-traced density matrices ...

NOs
  Occupation of frontier NOs:
     0.1162   0.1539   0.9344   1.9220   1.9301   1.9434
  Number of electrons: 17.000000
  Number of unpaired electrons: n_u =  1.40906, n_u,nl =  1.17289
  NO participation ratio (PR_NO):  2.147812

NDOs
  Leading detachment eigenvalues:
    -0.8461  -0.1598  -0.0607
  Leading attachment eigenvalues:
     0.9164   0.1967   0.0000
  Number of detached / attached electrons: p_D =  1.1131, p_A =  1.1131
  Number of involved orbitals: PR_D =  1.658268, PR_A =  1.410384

Mulliken Population Analysis
    Atom      Charge (e)              h+              e-           Del q
------------------------------------------------------------------------
1 S1            0.854527        0.935517       -0.623819        0.311698
2 H2            0.067304        0.088984       -0.250055       -0.161071
3 H3            0.078169        0.088627       -0.239255       -0.150628
------------------------------------------------------------------------
    Sum:        1.000000        1.113128       -1.113128       -0.000000

Lowdin Population Analysis
    Atom      Charge (e)              h+              e-           Del q
------------------------------------------------------------------------
1 S1            0.932086        0.954339       -0.621606        0.332733
2 H2            0.028150        0.079462       -0.251258       -0.171796
3 H3            0.039764        0.079328       -0.240265       -0.160937
------------------------------------------------------------------------
    Sum:        1.000000        1.113128       -1.113128       -0.000000

Multipole moment analysis of the density matrix
  Molecular charge:                      1.000000
  Number of electrons:                   17.000000
    Center of electronic charge [Ang]: [ -0.005428,   0.000483,   0.129760]
  Total nuclear charge:                  18.000000
    Center of nuclear charge [Ang]:    [ -0.005882,   0.000000,   0.139960]
  Dipole moment [D]:                     0.834654
    Cartesian components [D]:          [ -0.037082,  -0.039436,   0.832896]
  RMS size of the density [Ang]:         0.826278
    Cartesian components [Ang]:        [  0.345739,   0.510454,   0.550124]

Exciton analysis of the difference density matrix
  <r_h> [Ang]:                  [ -0.008354,   0.000601,   0.199072]
  <r_e> [Ang]:                  [ -0.021109,   0.008028,   0.509631]
  |<r_e - r_h>| [Ang]:            0.310910
  Hole size [Ang]:                1.223401
    Cartesian components [Ang]: [  0.799584,   0.645112,   0.664235]
  Electron size [Ang]:            1.456702
    Cartesian components [Ang]: [  0.521556,   0.935654,   0.987174]

  RASSI analysis for transiton from state 1 to 5 (D1-D5)
  ------------------------------------------------------
Energy: 8.0609 eV

NTOs (alpha)
  Leading SVs:
     0.8273   0.0001   0.0000
  Sum of SVs (Omega):               0.827408
  Participation ratio (PR_NTO):     1.000300
  Entanglement entropy (S_HE):      0.227909
  Nr of entangled states (Z_HE):    1.171136
  Renormalized S_HE/Z_HE:  0.002120 /  1.001470
NTOs (beta)
  Leading SVs:
     0.0416   0.0021   0.0000
  Sum of SVs (Omega):               0.043727
  Participation ratio (PR_NTO):     1.101361
  Entanglement entropy (S_HE):      0.209656
  Nr of entangled states (Z_HE):    1.156413
  Renormalized S_HE/Z_HE:  0.279365 /  1.213661

CT numbers (Mulliken)
  omega        =     0.8711 (alpha:     0.8274, beta:     0.0437)
 2<alpha|beta> =    -0.0162
  LOC          =     0.0011 (alpha:     0.0011, beta:     0.0000)
  <Phe>        =     0.0420 (alpha:     0.0226, beta:     0.4108)

CT numbers (Lowdin)
  omega        =     0.8711 (alpha:     0.8274, beta:     0.0437)
 2<alpha|beta> =    -0.0162
  LOC          =     0.0006 (alpha:     0.0006, beta:     0.0000)
  <Phe>        =     0.0420 (alpha:     0.0226, beta:     0.4108)

Exciton analysis of the transition density matrix
Total:
  Trans. dipole moment [D]:             0.246833
    Cartesian components [D]:         [  0.246289,  -0.012633,   0.010417]
  Transition <r^2> [a.u.]:              0.018065
    Cartesian components [a.u.]:      [ -0.012552,  -0.000445,   0.012984]
  <r_h> [Ang]:                        [ -0.001623,  -0.000044,   0.039166]
  <r_e> [Ang]:                        [ -0.028146,   0.013619,   0.682778]
  |<r_e - r_h>| [Ang]:                  0.644303
  Hole size [Ang]:                      1.132844
    Cartesian components [Ang]:       [  0.863372,   0.517198,   0.520029]
  Electron size [Ang]:                  1.494549
    Cartesian components [Ang]:       [  0.551885,   0.972573,   0.991564]
  RMS electron-hole separation [Ang]:   1.983397
    Cartesian components [Ang]:       [  1.019860,   1.101612,   1.296227]
  Covariance(r_h, r_e) [Ang^2]:        -0.000864
  Correlation coefficient:             -0.000510
  Center-of-mass size [Ang]:            0.937454
    Cartesian components [Ang]:       [  0.514919,   0.550778,   0.557067]

Alpha spin:
  Trans. dipole moment [D]:             0.356906
    Cartesian components [D]:         [ -0.356120,   0.018266,  -0.015063]
  Transition <r^2> [a.u.]:              0.024534
    Cartesian components [a.u.]:      [ -0.017112,  -0.000444,   0.017575]
  <r_h> [Ang]:                        [ -0.001218,   0.000096,   0.029749]
  <r_e> [Ang]:                        [ -0.029523,   0.014304,   0.716160]
  |<r_e - r_h>| [Ang]:                  0.687141
  Hole size [Ang]:                      1.139678
    Cartesian components [Ang]:       [  0.876808,   0.513977,   0.515655]
  Electron size [Ang]:                  1.503880
    Cartesian components [Ang]:       [  0.530375,   0.990854,   0.999283]
  RMS electron-hole separation [Ang]:   2.008048
    Cartesian components [Ang]:       [  1.024894,   1.116317,   1.317454]
  Covariance(r_h, r_e) [Ang^2]:         0.000213
  Correlation coefficient:              0.000124
  Center-of-mass size [Ang]:            0.943523
    Cartesian components [Ang]:       [  0.512488,   0.558114,   0.562229]

Beta spin:
  Trans. dipole moment [D]:             0.603739
    Cartesian components [D]:         [  0.602409,  -0.030899,   0.025481]
  Transition <r^2> [a.u.]:              0.006471
    Cartesian components [a.u.]:      [  0.004560,  -0.000002,  -0.004591]
  <r_h> [Ang]:                        [ -0.009295,  -0.002685,   0.217346]
  <r_e> [Ang]:                        [ -0.002092,   0.000668,   0.051116]
  |<r_e - r_h>| [Ang]:                  0.166420
  Hole size [Ang]:                      0.977743
    Cartesian components [Ang]:       [  0.550371,   0.574755,   0.568094]
  Electron size [Ang]:                  1.132808
    Cartesian components [Ang]:       [  0.862768,   0.516294,   0.521849]
  RMS electron-hole separation [Ang]:   1.439466
    Cartesian components [Ang]:       [  0.919413,   0.772256,   0.793954]
  Covariance(r_h, r_e) [Ang^2]:         0.097435
  Correlation coefficient:              0.087970
  Center-of-mass size [Ang]:            0.780081
    Cartesian components [Ang]:       [  0.558857,   0.386471,   0.383205]

===== TheoDORE analysis of CT numbers (Mulliken)===========================================
| State            dE(eV)      f         Om        POSi      POSf      PR        CT        
| -----------------------------------------------------------------------------------------
| D1-D2           3.493246  0.008086  0.945659  1.118667  1.002691  1.134946  0.120721
| D1-D3           3.906945  0.000002  0.915967  1.182577  1.005256  1.218028  0.186840
| D1-D4           7.251734  0.000000  0.896164  1.005458  1.268890  1.329451  0.272890
| D1-D5           8.060867  0.001862  0.871135  1.003811  1.293576  1.358204  0.295806
===========================================================================================


===== TheoDORE analysis of CT numbers (Lowdin)=============================================
| State            dE(eV)      f         Om        POSi      POSf      PR        CT        
| -----------------------------------------------------------------------------------------
| D1-D2           3.493246  0.008086  0.945659  1.096209  1.004790  1.110070  0.100078
| D1-D3           3.906945  0.000002  0.915967  1.173654  1.007296  1.208609  0.179265
| D1-D4           7.251734  0.000000  0.896164  1.007266  1.261578  1.322063  0.266318
| D1-D5           8.060867  0.001862  0.871135  1.008612  1.268230  1.331819  0.274238
===========================================================================================

 Writing fragment Omega matrix to OmFrag.txt
--- Stop Module: wfa at Wed Mar 27 10:53:26 2024 /rc=_RC_ALL_IS_WELL_ ---

>>> COPY MOLCAS.rassi.h5.bak MOLCAS.rassi.h5

.##################.
.# Happy landing! #.
.##################.

    Timing: Wall=25.55 User=21.95 System=3.23
