   This run of MOLCAS is using the pymolcas driver

                             OPE
                             OPE          NMOL  CASOP  ENMOLC A   SO
                 OPE        NMOLC        AS  OP EN  MO LC     AS  OP
                OPENM       OL CA        SO  PE NM  OL CA     SOP EN
                OP EN      MO   LC       AS  OP ENMOL  CASO   PENMOL
                OP  EN     MO   LC       AS  OP EN     MO     LC ASO
               OP   E  NMOL  C  AS       OP  EN MO     LC     AS  OP
               OP  E   NMO   LC AS        OPEN  MO     LCASOP EN   M
               O  PEN   MO  LCA  SO
            OPE   NMO   L   CAS    OP
        OPENMOL  CASOP     ENMOL   CASOPE
     OPENMOLCA   SOPENMOLCASOPEN   MOLCASOPE
    OPENMOLCAS   OP           EN   MOL    CAS
    OPENMOLCAS       OP  ENM        O     LCA
    OPENMOLCAS    OPEN  MOLCASO     P  E  NMO
    OPENMOLCAS     OP               E  N  MOL
    OPENMOLCA   SO           PENM   O  L  CAS    OPEN    MO    LCAS
    OPENMOLCA   SOP           ENM   O  L  CAS   OP  EN  MOLC  AS   O
    OPENMOLCA   SOPE           NM      O  LCA   S      OP  EN MO
    OPENMOLC                AS         O  PEN   M      OL  CA  SOPE
    OPENMO        LCASOPE  NMOL        C  ASO   P      ENMOLC     AS
    OPE     NMO      LCA  SO     P     E   NM   OL  CA SO  PE N   MO
          OPENMOLCA            SOPE   NMO        LCAS  O    P  ENMO
     OPENMOLCASOPENMOLCASOPENMOLCASOPENMOLCA
        OPENMOLCASOPENMOLCASOPENMOLCASOPE
            OPENMOLCASOPENMOLCASOPENM
               OPENMOLCASOPENMOLCA        version: v23.06
                   OPENMOLCASO
                       OPE                tag:

 OpenMolcas is free software; you can redistribute it and/or modify it
 under the terms of the GNU Lesser General Public License version 2.1.
 OpenMolcas is distributed in the hope that it will be useful, but it
 is provided "as is" and without any express or implied warranties.
 For more details see the full text of the license in the file
 LICENSE or in <http://www.gnu.org/licenses/>.

                 Copyright (C) The OpenMolcas Authors
           For the author list and the recommended citation,
                   consult the file CONTRIBUTORS.md

           *************************************************
           * pymolcas version py2.24                       *
           *   build 0399f41f8acc7cc530e7639ac37f2484      *
           *   (after the EMIL interpreter by V. Veryazov) *
           *************************************************

configuration info
------------------
Host name: manganese.itc.univie.ac.at (Linux)
C Compiler ID: GNU
C flags: -std=gnu99
Fortran Compiler ID: Intel
Fortran flags: -fpp -i8 -heap-arrays
Definitions: _MOLCAS_;_I8_;_LINUX_
Parallel: OFF (GA=OFF)


   ---------------------------------------------------------------------------
  |
  |           Project: MOLCAS
  |    Submitted from: /public/manganese/scratch/tmp/sascha.925337/WORK/master
  |      Scratch area: /public/manganese/scratch/tmp/sascha.925337/WORK/master
  |   Save outputs to: WORKDIR
  |            Molcas: /usr/license/openmolcas/v23.06_wfa
  |
  | Scratch area is NOT empty
  |
  |        MOLCASMEM = 10000
  |    MOLCAS_DRIVER = /usr/license/openmolcas/v23.06_wfa/pymolcas
  |    MOLCAS_NPROCS = 1
  |    MOLCAS_SOURCE = /usr/license/openmolcas/v23.06_wfa
  | MOLCAS_STRUCTURE = 0
  |
   ---------------------------------------------------------------------------

++ ---------   Input file   ---------

&GATEWAY
COORD=MOLCAS.xyz
GROUP=NOSYM
BASIS=cc-pvdz
BASLIB
/user/sascha/development/eci/sharc_main/examples/SHARC_MOLCAS/basisset

RICD
CDTHreshold=0.0001

&SEWARD

&RASSCF
SPIN=1
NACTEL=8 0 0
INACTIVE=5
RAS2=6
ITERATIONS=200,100
CIROOT=10 10 1
THRS=0.000000010000 0.000100000000 0.000100000000

&CASPT2
SHIFT=0.0
IMAGINARY= 0.000
IPEASHIFT= 0.25
MAXITER=120
XMULTISTATE= 6 1 2 3 4 5 6
OUTPUT=BRIEF
PRWF=0.1

>>> COPY MOLCAS.JobMix MOLCAS.1.JobIph

&RASSCF
SPIN=2
NACTEL=7 0 0
INACTIVE=5
RAS2=6
ITERATIONS=200,100
CIROOT=5 5 1
THRS=0.000000010000 0.000100000000 0.000100000000

&CASPT2
SHIFT=0.0
IMAGINARY= 0.000
IPEASHIFT= 0.25
MAXITER=120
XMULTISTATE= 5 1 2 3 4 5
OUTPUT=BRIEF
PRWF=0.1

>>> COPY MOLCAS.JobMix MOLCAS.2.JobIph

&RASSCF
SPIN=3
NACTEL=8 0 0
INACTIVE=5
RAS2=6
ITERATIONS=200,100
CIROOT=4 4 1
THRS=0.000000010000 0.000100000000 0.000100000000

&CASPT2
SHIFT=0.0
IMAGINARY= 0.000
IPEASHIFT= 0.25
MAXITER=120
XMULTISTATE= 3 1 2 3
OUTPUT=BRIEF
PRWF=0.1

>>> COPY MOLCAS.JobMix MOLCAS.3.JobIph

>>> COPY MOLCAS.1.JobIph JOB001

>>> COPY MOLCAS.2.JobIph JOB002

>>> COPY MOLCAS.3.JobIph JOB003

&RASSI
NROFJOBIPHS
3 6 5 3
1 2 3 4 5 6
1 2 3 4 5
1 2 3
MEIN
EJOB

>>> COPY MOLCAS.rassi.h5 MOLCAS.rassi.h5.bak

>>> COPY MOLCAS.1.JobIph JOB001

>>> COPY MOLCAS.3.JobIph JOB002

&RASSI
NROFJOBIPHS
2 6 3
1 2 3 4 5 6
1 2 3
MEIN
EJOB
TRD1

&WFA
H5file = MOLCAS.rassi.h5
DoCTnumbers
ATLISTS
2
1 2 *
3 *
PROP Om POSi POSf PR CT *
LOWDIN
NXO
EXCITON
WFALEVEL 4

>>> COPY MOLCAS.2.JobIph JOB001

&RASSI
NROFJOBIPHS
1 5
1 2 3 4 5
MEIN
EJOB
TRD1

&WFA
H5file = MOLCAS.rassi.h5
DoCTnumbers
ATLISTS
2
1 2 *
3 *
PROP Om POSi POSf PR CT *
LOWDIN
NXO
EXCITON
WFALEVEL 4

>>> COPY MOLCAS.rassi.h5.bak MOLCAS.rassi.h5

-- ----------------------------------

--- Start Module: gateway at Wed Mar 27 10:56:26 2024 ---
 
()()()()()()()()()()()()()()()()()()()()()()()()()()()()()()()()()()()()()()()()()()()()()()()()()()

                                              &GATEWAY

                                   only a single process is used
                       available to each process: 10 GB of memory, 1 thread?
                                            pid: 734505
()()()()()()()()()()()()()()()()()()()()()()()()()()()()()()()()()()()()()()()()()()()()()()()()()()
 
 
 
 Basis Set     1 Label: S.CC-PVDZ
 Basis set is read from library:/user/sascha/development/eci/sharc_main/examples/SHARC_MOLCAS/basisset 
 
 
 Basis Set     2 Label: H.CC-PVDZ
 Basis set is read from library:/user/sascha/development/eci/sharc_main/examples/SHARC_MOLCAS/basisset 
 
++    Symmetry information:
      ---------------------
 
                    Character Table for C1 
 
                             E  
                    a        1  x, y, xy, Rz, z, xz, Ry, yz, Rx, I
--
 
 
++    Basis set information:
      ----------------------
 
 
      Basis set label: S.CC-PVDZ.........
 
      Electronic valence basis set:
      ------------------
      Associated Effective Charge  16.000000 au
      Associated Actual Charge     16.000000 au
      Nuclear Model: Point charge
 
      Shell  nPrim  nBasis  Cartesian Spherical Contaminant
         s      12       4        X                  
         p       8       3        X                  
         d       1       1                 X         
 
 
      Basis set label: H.CC-PVDZ.........
 
      Electronic valence basis set:
      ------------------
      Associated Effective Charge   1.000000 au
      Associated Actual Charge      1.000000 au
      Nuclear Model: Point charge
 
      Shell  nPrim  nBasis  Cartesian Spherical Contaminant
         s       4       2        X                  
         p       1       1        X                  
--
 
 
++    Molecular structure info:
      -------------------------
 
                    ************************************************ 
                    **** Cartesian Coordinates / Bohr, Angstrom **** 
                    ************************************************ 
 
     Center  Label                x              y              z                     x              y              z
        1      S1               0.000000       0.000000       0.001589              0.000000       0.000000       0.000841
        2      H2               0.000000       1.842103       2.235421              0.000000       0.974799       1.182934
        3      H3              -0.188973      -1.842103       2.235421             -0.100000      -0.974799       1.182934
 
                    *************************************** 
                    *    InterNuclear Distances / Bohr    * 
                    *************************************** 
 
               1 S1            2 H2            3 H3    
    1 S1       0.000000
    2 H2       2.895401        0.000000
    3 H3       2.901562        3.689050        0.000000
 
                    ******************************************* 
                    *    InterNuclear Distances / Angstrom    * 
                    ******************************************* 
 
               1 S1            2 H2            3 H3    
    1 S1       0.000000
    2 H2       1.532180        0.000000
    3 H3       1.535440        1.952161        0.000000
 
                    ************************************** 
                    *    Valence Bond Angles / Degree    * 
                    ************************************** 
                          Atom centers                 Phi
                      2 H2       1 S1       3 H3        79.04
--
 
 
            Nuclear Potential Energy             11.31134847 au
 
--- Stop Module: gateway at Wed Mar 27 10:56:27 2024 /rc=_RC_ALL_IS_WELL_ ---

--- Start Module: seward at Wed Mar 27 10:56:27 2024 ---
 
()()()()()()()()()()()()()()()()()()()()()()()()()()()()()()()()()()()()()()()()()()()()()()()()()()

                                              &SEWARD

                                   only a single process is used
                       available to each process: 10 GB of memory, 1 thread?
                                            pid: 734510
()()()()()()()()()()()()()()()()()()()()()()()()()()()()()()()()()()()()()()()()()()()()()()()()()()
 
               SEWARD will generate:
                  Multipole Moment integrals up to order  2
                  Kinetic Energy integrals
                  Nuclear Attraction integrals (point charge)
                  One-Electron Hamiltonian integrals
                  Velocity integrals
                  Orbital angular momentum around (-0.0056  0.0000  0.1341 )
                  Velocity quadrupole around (-0.0056  0.0000  0.1341 )
                  RI decomposed two-electron repulsion integrals stored Cholesky style
                   - acCD auxiliary basis
                   - CD Threshold:   0.10E-03
 
                   Integrals are discarded if absolute value <: 0.10E-13
                   Integral cutoff threshold is set to       <: 0.10E-15
 
            Nuclear Potential Energy             11.31134847 au
 
 
      Basis set specifications :
      Symmetry species         a  
      Basis functions           28
 
 
      Input file to MOLDEN was generated!
 
--- Stop Module: seward at Wed Mar 27 10:56:28 2024 /rc=_RC_ALL_IS_WELL_ ---

*** symbolic link created: INPORB -> MOLCAS.GssOrb
--- Start Module: rasscf at Wed Mar 27 10:56:28 2024 ---
 
()()()()()()()()()()()()()()()()()()()()()()()()()()()()()()()()()()()()()()()()()()()()()()()()()()

                                              &RASSCF

                                   only a single process is used
                       available to each process: 10 GB of memory, 1 thread?
                                            pid: 734517
()()()()()()()()()()()()()()()()()()()()()()()()()()()()()()()()()()()()()()()()()()()()()()()()()()
 
 
      Header of the ONEINT file:
      --------------------------
      
      Integrals generated by Gateway/Seward, Wed Mar 27 10:56:27 2024
 
 
      OrdInt status: non-squared
 
 
      Cartesian coordinates in Angstrom:
      -----------------------------------------------------
      No.  Label        X            Y            Z        
      -----------------------------------------------------
       1   S1         0.00000000   0.00000000   0.00084100
       2   H2         0.00000000   0.97479900   1.18293400
       3   H3        -0.10000000  -0.97479900   1.18293400
      -----------------------------------------------------
      Nuclear repulsion energy =   11.31134847
 
++    Wave function specifications:
      -----------------------------
 
      Number of closed shell electrons          10
      Number of electrons in active shells       8
      Max number of holes in RAS1 space          0
      Max nr of electrons in RAS3 space          0
      Number of inactive orbitals                5
      Number of active orbitals                  6
      Number of secondary orbitals              17
      Spin quantum number                      0.0
      State symmetry                             1
--
 
++    Orbital specifications:
      -----------------------
 
      Symmetry species                           1
                                                 a
      Frozen orbitals                            0
      Inactive orbitals                          5
      Active orbitals                            6
      RAS1 orbitals                              0
      RAS2 orbitals                              6
      RAS3 orbitals                              0
      Secondary orbitals                        17
      Deleted orbitals                           0
      Number of basis functions                 28
--
 
++    CI expansion specifications:
      ----------------------------
 
      Number of CSFs                           105
      Number of determinants                   120
      Number of root(s) required                10
      Root chosen for geometry opt.             10
      CI roots used                              1     2     3     4     5     6     7     8     9    10
      weights                                0.100 0.100 0.100 0.100 0.100 0.100 0.100 0.100 0.100 0.100
      highest root included in the CI           10
      max. size of the explicit Hamiltonian    105
--
 
++    Optimization specifications:
      ----------------------------
 
      RASSCF algorithm: LK RI/DF
      Maximum number of macro iterations       200
      Maximum number of SX iterations          100
      Threshold for RASSCF energy            0.100E-07
      Threshold for max MO rotation          0.100E-03
      Threshold for max BLB element          0.100E-03
      Level shift parameter                  0.500E+00
      Make Quasi-Newton update
--
 
      Orbitals from runfile: guessorb orbitals
      The MO-coefficients are taken from guessorb on runfile
 
      Total molecular charge    0.00
 
      ************************************************************************************************************************
      *                                                                                                                      *
      *                                            Wave function control section                                             *
      *                                                                                                                      *
      ************************************************************************************************************************
 
 
                                         RASSCF iterations: Energy and convergence statistics
                                         ----------------------------------------------------
 
      Iter CI   SX   CI       RASSCF       Energy    max ROT     max BLB   max BLB  Level Ln srch  Step   QN   Walltime
          iter iter root      energy       change     param      element    value   shift minimum  type update hh:mm:ss
 Nr of preliminary CI iterations:   1
        1   1   79    0  -398.26969976    0.00E+00   0.14E+00*   7  18 1  0.14E+00*  0.00   0.00    SX    NO    0:00:00
        2   1   31    0  -398.34815254   -0.78E-01* -0.67E-01*  11  13 1 -0.31E-01*  0.00   0.00    SX    NO    0:00:00
        3   1   14    0  -398.35517623   -0.70E-02*  0.27E-01*  11  13 1 -0.12E-01*  0.00   0.00    SX    NO    0:00:00
        4   1   14    0  -398.35608083   -0.90E-03*  0.12E-01*  11  13 1 -0.50E-02*  0.00   0.00    SX    NO    0:00:00
        5   1   13    0  -398.35622120   -0.14E-03*  0.76E-02*  11  13 1 -0.20E-02*  0.00   1.67    LS   YES    0:00:00
        6   1   11    0  -398.35624821   -0.27E-04*  0.36E-03*   6  13 1 -0.29E-03*  0.00   1.02    QN   YES    0:00:00
        7   1    9    0  -398.35624859   -0.38E-06* -0.12E-03*   7  12 1  0.50E-04   0.00   1.13    QN   YES    0:00:00
        8   1    6    0  -398.35624861   -0.25E-07*  0.17E-04   10  18 1  0.10E-04   0.00   1.06    QN   YES    0:00:00
        9   1    5    0  -398.35624861   -0.51E-09   0.34E-05    6  13 1  0.23E-05   0.00   1.19    QN   YES    0:00:00
      Convergence after  9 iterations
       10   1    5    0  -398.35624861   -0.27E-10   0.34E-05    7  18 1  0.22E-06   0.00   1.19    QN   YES    0:00:00
 
      ************************************************************************************************************************
                                                      Wave function printout:
                       occupation of active orbitals, and spin coupling of open shells (u,d: Spin up or down)
      ************************************************************************************************************************
 
      Note: transformation to natural orbitals
      has been made, which may change the order of the CSFs.
 
      printout of CI-coefficients larger than  0.05 for root  1
      energy=    -398.690796
      conf/sym  111111     Coeff  Weight
             1  222200  -0.95825 0.91824
             9  22u20d   0.14513 0.02106
            15  2u22d0   0.15740 0.02477
            25  u2220d   0.05078 0.00258
            31  220220   0.07697 0.00592
            34  220202   0.05161 0.00266
            38  2ud2ud   0.10455 0.01093
            49  202220   0.08678 0.00753
 
      printout of CI-coefficients larger than  0.05 for root  2
      energy=    -398.510185
      conf/sym  111111     Coeff  Weight
             2  222ud0   0.97503 0.95069
            10  22udud   0.07872 0.00620
            11  22uudd  -0.11959 0.01430
            16  2u2d20   0.05389 0.00290
            21  2u2d02   0.08111 0.00658
            26  u22dud   0.05370 0.00288
            35  220ud2  -0.06535 0.00427
            39  2udu2d  -0.07190 0.00517
 
      printout of CI-coefficients larger than  0.05 for root  3
      energy=    -398.476147
      conf/sym  111111     Coeff  Weight
             4  222u0d  -0.96332 0.92799
             8  22ud20  -0.11729 0.01376
            18  2u2dud  -0.14778 0.02184
            19  2u2udd  -0.09437 0.00891
            33  220u2d  -0.06478 0.00420
            41  2udud2  -0.07658 0.00587
            51  202u2d  -0.10848 0.01177
 
      printout of CI-coefficients larger than  0.05 for root  4
      energy=    -398.351934
      conf/sym  111111     Coeff  Weight
             3  222020   0.08593 0.00738
             7  22u2d0  -0.05711 0.00326
             9  22u20d  -0.73037 0.53344
            15  2u22d0   0.60270 0.36325
            25  u2220d   0.06363 0.00405
            31  220220  -0.17681 0.03126
            38  2ud2ud  -0.05908 0.00349
            43  u2d220  -0.07685 0.00591
            46  u2d202   0.05942 0.00353
            49  202220  -0.09499 0.00902
            52  202202   0.14656 0.02148
            56  ud22ud   0.05433 0.00295
 
      printout of CI-coefficients larger than  0.05 for root  5
      energy=    -398.347194
      conf/sym  111111     Coeff  Weight
             7  22u2d0   0.69289 0.48009
            15  2u22d0   0.05168 0.00267
            17  2u220d  -0.64705 0.41867
            32  2202ud   0.10661 0.01137
            37  2ud220  -0.17403 0.03029
            40  2ud202   0.18508 0.03426
            50  2022ud  -0.08276 0.00685
            55  ud2220  -0.07374 0.00544
 
      printout of CI-coefficients larger than  0.05 for root  6
      energy=    -398.279343
      conf/sym  111111     Coeff  Weight
             7  22u2d0  -0.67683 0.45810
            17  2u220d  -0.71543 0.51184
            40  2ud202   0.05291 0.00280
            44  u2d2ud   0.08092 0.00655
            55  ud2220   0.06714 0.00451
            76  2u022d   0.07212 0.00520
 
      printout of CI-coefficients larger than  0.05 for root  7
      energy=    -398.265825
      conf/sym  111111     Coeff  Weight
             3  222020  -0.75501 0.57004
             6  222002   0.52938 0.28024
             9  22u20d  -0.22671 0.05140
            12  22u02d  -0.11120 0.01236
            15  2u22d0  -0.13742 0.01888
            22  2u20d2  -0.17433 0.03039
            25  u2220d   0.10376 0.01077
            34  220202  -0.05281 0.00279
            61  022220   0.05974 0.00357
 
      printout of CI-coefficients larger than  0.05 for root  8
      energy=    -398.216890
      conf/sym  111111     Coeff  Weight
             1  222200   0.18343 0.03365
             3  222020  -0.24283 0.05896
             6  222002   0.12598 0.01587
             9  22u20d   0.55575 0.30885
            15  2u22d0   0.69011 0.47626
            25  u2220d  -0.09022 0.00814
            43  u2d220  -0.07864 0.00618
            49  202220  -0.14952 0.02236
            56  ud22ud  -0.06767 0.00458
            67  2uu2dd   0.17230 0.02969
            77  2u02d2   0.08375 0.00701
            82  20u22d   0.12971 0.01683
 
      printout of CI-coefficients larger than  0.05 for root  9
      energy=    -398.215561
      conf/sym  111111     Coeff  Weight
             2  222ud0  -0.06301 0.00397
            11  22uudd  -0.49939 0.24939
            16  2u2d20   0.68698 0.47194
            21  2u2d02  -0.49281 0.24286
            35  220ud2  -0.08794 0.00773
            53  202ud2   0.09799 0.00960
            74  uu2d2d   0.06694 0.00448
 
      printout of CI-coefficients larger than  0.05 for root 10
      energy=    -398.208610
      conf/sym  111111     Coeff  Weight
             8  22ud20  -0.63818 0.40728
            13  22ud02   0.53179 0.28280
            18  2u2dud   0.08103 0.00657
            19  2u2udd   0.50431 0.25433
            24  u22d20  -0.05163 0.00267
            29  u22d02   0.07742 0.00599
            33  220u2d  -0.08445 0.00713
            51  202u2d   0.11056 0.01222
            69  2uudd2  -0.11118 0.01236
            71  u2ud2d  -0.06305 0.00398
 
      Natural orbitals and occupation numbers for root  1
      sym 1:   1.997178   1.960374   1.963769   1.998361   0.048817   0.031501
 
      Natural orbitals and occupation numbers for root  2
      sym 1:   1.998796   1.985431   1.961014   1.000000   0.998770   0.055989
 
      Natural orbitals and occupation numbers for root  3
      sym 1:   1.998723   1.937366   1.971250   1.000000   0.100449   0.992211
 
      Natural orbitals and occupation numbers for root  4
      sym 1:   1.976905   1.575608   1.369489   1.981513   0.469961   0.626524
 
      Natural orbitals and occupation numbers for root  5
      sym 1:   1.992044   1.520620   1.393122   1.997203   0.609612   0.487400
 
      Natural orbitals and occupation numbers for root  6
      sym 1:   1.990802   1.468051   1.513715   1.998306   0.493917   0.535208
 
      Natural orbitals and occupation numbers for root  7
      sym 1:   1.990927   1.959079   1.921243   0.208629   1.220853   0.699270
 
      Natural orbitals and occupation numbers for root  8
      sym 1:   1.982830   1.400278   1.616383   1.845087   0.733435   0.421986
 
      Natural orbitals and occupation numbers for root  9
      sym 1:   1.998007   1.269236   1.736360   1.000000   1.223390   0.773007
 
      Natural orbitals and occupation numbers for root 10
      sym 1:   1.997688   1.734333   1.270033   1.000000   1.111028   0.886918
 
      ************************************************************************************************************************
      *                                                                                                                      *
      *                                                    Final results                                                     *
      *                                                                                                                      *
      ************************************************************************************************************************
 
 
++    Wave function specifications:
      -----------------------------
 
      Number of closed shell electrons          10
      Number of electrons in active shells       8
      Max number of holes in RAS1 space          0
      Max nr of electrons in RAS3 space          0
      Number of inactive orbitals                5
      Number of active orbitals                  6
      Number of secondary orbitals              17
      Spin quantum number                      0.0
      State symmetry                             1
--
 
++    Orbital specifications:
      -----------------------
 
      Symmetry species                           1
                                                 a
      Frozen orbitals                            0
      Inactive orbitals                          5
      Active orbitals                            6
      RAS1 orbitals                              0
      RAS2 orbitals                              6
      RAS3 orbitals                              0
      Secondary orbitals                        17
      Deleted orbitals                           0
      Number of basis functions                 28
--
 
++    CI expansion specifications:
      ----------------------------
 
      Number of CSFs                           105
      Number of determinants                   120
      Number of root(s) required                10
      CI roots used                              1     2     3     4     5     6     7     8     9    10
      weights                                0.100 0.100 0.100 0.100 0.100 0.100 0.100 0.100 0.100 0.100
      highest root included in the CI           10
      Root passed to geometry opt.              10
--
 
++    Final optimization conditions:
      ------------------------------
 
      Average CI energy                            -398.35624861
      RASSCF energy for state 10                   -398.20861014
      Super-CI energy                                -0.00000000
      RASSCF energy change                           -0.00000000
      Max change in MO coefficients               0.569E-05
      Max non-diagonal density matrix element     0.337E-05
      Maximum BLB matrix element                  0.221E-06
      (orbital pair   7,  18 in symmetry   1)
      Norm of electronic gradient            0.785E-01
--
 
 
      Final state energy(ies):
      ------------------------
 
::    RASSCF root number  1 Total energy:   -398.69079613
::    RASSCF root number  2 Total energy:   -398.51018540
::    RASSCF root number  3 Total energy:   -398.47614657
::    RASSCF root number  4 Total energy:   -398.35193447
::    RASSCF root number  5 Total energy:   -398.34719447
::    RASSCF root number  6 Total energy:   -398.27934348
::    RASSCF root number  7 Total energy:   -398.26582451
::    RASSCF root number  8 Total energy:   -398.21688958
::    RASSCF root number  9 Total energy:   -398.21556141
::    RASSCF root number 10 Total energy:   -398.20861014
 
++    Molecular orbitals:
      -------------------
 
      Pseudonatural active orbitals and approximate occupation numbers
 
 
 
 
      Molecular orbitals for symmetry species 1: a  
 
 
      Orbital                 1         2         3         4         5         6         7         8         9        10
      Energy           -92.0338   -9.0336   -6.7127   -6.7124   -6.7117   -0.9218   -0.0000   -0.0000   -0.0005   -0.0002
      Occ. No.           2.0000    2.0000    2.0000    2.0000    2.0000    1.9851    1.6665    1.6743    1.4029    0.7107
 
     1 S1     1s         1.0000    0.0002    0.0000   -0.0000   -0.0000    0.0015   -0.0000    0.0009    0.0000   -0.0000
     2 S1     2s         0.0001    1.0012   -0.0022    0.0000   -0.0000    0.0106    0.0000    0.0018    0.0000   -0.0002
     3 S1     3s         0.0002    0.0021    0.0029   -0.0000   -0.0000    0.9530    0.0079   -0.2998    0.0000   -0.0004
     4 S1     *s        -0.0002   -0.0049   -0.0012    0.0000    0.0000   -0.0578    0.0018   -0.0841   -0.0000    0.0018
     5 S1     2px       -0.0000   -0.0001   -0.0415    0.0517    0.9978    0.0002   -0.0003    0.0003   -0.0021    0.0003
     6 S1     3px       -0.0000   -0.0001   -0.0000    0.0000    0.0004   -0.0045    0.0407   -0.0325    0.9795    0.0346
     7 S1     *px        0.0000    0.0001    0.0000   -0.0000    0.0001    0.0015   -0.0048    0.0026    0.0158    0.0167
     8 S1     2py        0.0000    0.0000    0.0139    0.9986   -0.0512   -0.0000   -0.0048   -0.0002    0.0001    0.0053
     9 S1     3py        0.0000    0.0000    0.0000    0.0006   -0.0000    0.0007    0.7745    0.0231   -0.0502    0.6748
    10 S1     *py       -0.0000   -0.0000   -0.0000   -0.0002   -0.0000   -0.0002   -0.0929   -0.0029   -0.0008    0.3263
    11 S1     2pz        0.0000    0.0027    0.9990   -0.0117    0.0422   -0.0046    0.0002   -0.0063   -0.0001   -0.0000
    12 S1     3pz        0.0001    0.0017    0.0010   -0.0000    0.0000    0.1071   -0.0220    0.7955    0.0414   -0.0004
    13 S1     *pz       -0.0001   -0.0030   -0.0004    0.0000    0.0000   -0.0359    0.0014   -0.0641    0.0007    0.0014
    14 S1     *d2-      -0.0000    0.0000    0.0000   -0.0000    0.0000    0.0006   -0.0026    0.0015    0.0001    0.0045
    15 S1     *d1-       0.0000    0.0000    0.0000    0.0003   -0.0000    0.0001    0.0601    0.0019   -0.0010   -0.1064
    16 S1     *d0       -0.0000    0.0001    0.0003   -0.0000    0.0000    0.0079   -0.0008    0.0320    0.0014   -0.0003
    17 S1     *d1+       0.0000   -0.0000   -0.0000    0.0000    0.0002   -0.0008    0.0032   -0.0029    0.0194   -0.0054
    18 S1     *d2+       0.0000   -0.0001   -0.0001   -0.0000   -0.0000   -0.0063    0.0002   -0.0149   -0.0008    0.0003
    19 H2     1s         0.0000   -0.0006    0.0010    0.0003   -0.0000    0.2066    0.4270    0.3773    0.0000   -0.5552
    20 H2     *s         0.0001    0.0020   -0.0004   -0.0002    0.0000   -0.0912   -0.0901   -0.1141   -0.0000   -0.4109
    21 H2     *px       -0.0000    0.0000    0.0000   -0.0000   -0.0000   -0.0001    0.0005   -0.0005    0.0133    0.0003
    22 H2     *py        0.0000    0.0004   -0.0000   -0.0000    0.0000   -0.0127   -0.0071   -0.0182   -0.0007    0.0008
    23 H2     *pz        0.0000    0.0005   -0.0001   -0.0000   -0.0000   -0.0134   -0.0204   -0.0094    0.0006   -0.0062
    24 H3     1s         0.0000   -0.0006    0.0010   -0.0004   -0.0000    0.2048   -0.4479    0.3514    0.0000    0.5578
    25 H3     *s         0.0001    0.0020   -0.0004    0.0002   -0.0000   -0.0904    0.0963   -0.1080    0.0000    0.4090
    26 H3     *px       -0.0000   -0.0000    0.0000   -0.0000   -0.0000    0.0012   -0.0013    0.0013    0.0132   -0.0002
    27 H3     *py       -0.0000   -0.0004    0.0000   -0.0000    0.0000    0.0126   -0.0081    0.0177   -0.0007    0.0008
    28 H3     *pz        0.0000    0.0005   -0.0001    0.0000   -0.0000   -0.0132    0.0208   -0.0082    0.0006    0.0061
 
 
      Orbital                11
      Energy             0.0086
      Occ. No.           0.5606
 
     1 S1     1s         0.0045
     2 S1     2s         0.0197
     3 S1     3s        -0.3439
     4 S1     *s        -0.5599
     5 S1     2px        0.0004
     6 S1     3px        0.0269
     7 S1     *px        0.0147
     8 S1     2py       -0.0000
     9 S1     3py       -0.0013
    10 S1     *py       -0.0022
    11 S1     2pz       -0.0099
    12 S1     3pz       -0.6382
    13 S1     *pz       -0.3508
    14 S1     *d2-       0.0036
    15 S1     *d1-       0.0007
    16 S1     *d0        0.0277
    17 S1     *d1+      -0.0035
    18 S1     *d2+      -0.0352
    19 H2     1s         0.4788
    20 H2     *s         0.4807
    21 H2     *px        0.0001
    22 H2     *py        0.0100
    23 H2     *pz        0.0108
    24 H3     1s         0.4782
    25 H3     *s         0.4748
    26 H3     *px       -0.0010
    27 H3     *py       -0.0099
    28 H3     *pz        0.0108
--
 
      Von Neumann Entropy (Root   1) =  0.28248
 

      Mulliken population analysis for root number:  1
      -----------------------------------------------
 
 
++    Molecular charges:
      ------------------
 
      Mulliken charges per centre and basis function type
      ---------------------------------------------------
 
                S1      H2      H3    
      1s       2.0000  1.1066  1.1055
      2s       2.0025  0.0000  0.0000
      2px      2.0000  0.0000  0.0000
      2pz      2.0000  0.0000  0.0000
      2py      2.0000  0.0000  0.0000
      3s       1.9692  0.0000  0.0000
      3px      1.9576  0.0000  0.0000
      3pz      1.3369  0.0000  0.0000
      3py      1.2157  0.0000  0.0000
      *s      -0.1030 -0.1712 -0.1698
      *px      0.0275  0.0042  0.0042
      *pz     -0.1769  0.0107  0.0106
      *py     -0.1979  0.0080  0.0079
      *d2+     0.0036  0.0000  0.0000
      *d1+     0.0011  0.0000  0.0000
      *d0      0.0083  0.0000  0.0000
      *d1-     0.0383  0.0000  0.0000
      *d2-     0.0001  0.0000  0.0000
      Total   16.0832  0.9584  0.9584
 
      N-E     -0.0832  0.0416  0.0416
 
      Total electronic charge=   18.000000
 
      Total            charge=   -0.000000
--
 
 

      Expectation values of various properties for root number:  1
      -----------------------------------------------------------
 
 
++    Molecular properties:
      ---------------------
 
      Charge (e):
                      =   -0.0000
      Dipole Moment (Debye):
      Origin of the operator (Ang)=    0.0000    0.0000    0.0000
                   X= -3.5552E-02               Y=  3.2014E-03               Z=  8.4440E-01           Total=  8.4515E-01
      Quadrupole Moment (Debye*Ang):
      Origin of the operator (Ang)=   -0.0030    0.0000    0.0709
                  XX= -1.6616E+01              XY=  1.7134E-01              XZ= -1.5280E-01              YY= -1.3286E+01
                  YZ=  6.5786E-03              ZZ= -1.3011E+01
      In traceless form (Debye*Ang)
                  XX= -3.4678E+00              XY=  2.5700E-01              XZ= -2.2920E-01              YY=  1.5279E+00
                  YZ=  9.8679E-03              ZZ=  1.9399E+00
--
 
      Von Neumann Entropy (Root   2) =  1.18387
 

      Mulliken population analysis for root number:  2
      -----------------------------------------------
 
 
++    Molecular charges:
      ------------------
 
      Mulliken charges per centre and basis function type
      ---------------------------------------------------
 
                S1      H2      H3    
      1s       2.0000  1.1515  1.1536
      2s       2.0025  0.0000  0.0000
      2px      2.0000  0.0000  0.0000
      2pz      2.0000  0.0000  0.0000
      2py      2.0000  0.0000  0.0000
      3s       1.9808  0.0000  0.0000
      3px      0.9839  0.0000  0.0000
      3pz      1.4267  0.0000  0.0000
      3py      1.7264  0.0000  0.0000
      *s      -0.0864 -0.1348 -0.1292
      *px      0.0137  0.0021  0.0021
      *pz     -0.1474  0.0134  0.0135
      *py     -0.0689  0.0088  0.0087
      *d2+     0.0032  0.0000  0.0000
      *d1+     0.0007  0.0000  0.0000
      *d0      0.0076  0.0000  0.0000
      *d1-     0.0673  0.0000  0.0000
      *d2-     0.0002  0.0000  0.0000
      Total   15.9103  1.0410  1.0488
 
      N-E      0.0897 -0.0410 -0.0488
 
      Total electronic charge=   18.000000
 
      Total            charge=   -0.000000
--
 
 

      Expectation values of various properties for root number:  2
      -----------------------------------------------------------
 
 
++    Molecular properties:
      ---------------------
 
      Charge (e):
                      =   -0.0000
      Dipole Moment (Debye):
      Origin of the operator (Ang)=    0.0000    0.0000    0.0000
                   X=  5.2347E-03               Y=  4.0516E-02               Z= -7.4627E-02           Total=  8.5077E-02
      Quadrupole Moment (Debye*Ang):
      Origin of the operator (Ang)=   -0.0030    0.0000    0.0709
                  XX= -1.3998E+01              XY= -1.5553E-01              XZ=  1.0876E-01              YY= -1.6936E+01
                  YZ=  9.9210E-02              ZZ= -1.6437E+01
      In traceless form (Debye*Ang)
                  XX=  2.6881E+00              XY= -2.3329E-01              XZ=  1.6314E-01              YY= -1.7186E+00
                  YZ=  1.4882E-01              ZZ= -9.6948E-01
--
 
      Von Neumann Entropy (Root   3) =  1.28442
 

      Mulliken population analysis for root number:  3
      -----------------------------------------------
 
 
++    Molecular charges:
      ------------------
 
      Mulliken charges per centre and basis function type
      ---------------------------------------------------
 
                S1      H2      H3    
      1s       2.0000  1.1206  1.1156
      2s       2.0024  0.0000  0.0000
      2px      2.0000  0.0000  0.0000
      2pz      2.0000  0.0000  0.0000
      2py      2.0000  0.0000  0.0000
      3s       2.0118  0.0000  0.0000
      3px      0.9835  0.0000  0.0000
      3pz      1.7130  0.0000  0.0000
      3py      1.3793  0.0000  0.0000
      *s      -0.1071 -0.0511 -0.0561
      *px      0.0136  0.0021  0.0022
      *pz     -0.0831  0.0150  0.0147
      *py     -0.1499  0.0117  0.0116
      *d2+     0.0074  0.0000  0.0000
      *d1+     0.0007  0.0000  0.0000
      *d0      0.0106  0.0000  0.0000
      *d1-     0.0313  0.0000  0.0000
      *d2-     0.0001  0.0000  0.0000
      Total   15.8136  1.0984  1.0880
 
      N-E      0.1864 -0.0984 -0.0880
 
      Total electronic charge=   18.000000
 
      Total            charge=   -0.000000
--
 
 

      Expectation values of various properties for root number:  3
      -----------------------------------------------------------
 
 
++    Molecular properties:
      ---------------------
 
      Charge (e):
                      =   -0.0000
      Dipole Moment (Debye):
      Origin of the operator (Ang)=    0.0000    0.0000    0.0000
                   X=  4.3957E-02               Y= -4.6795E-02               Z= -1.0960E+00           Total=  1.0979E+00
      Quadrupole Moment (Debye*Ang):
      Origin of the operator (Ang)=   -0.0030    0.0000    0.0709
                  XX= -1.4360E+01              XY= -1.1716E-01              XZ=  1.6851E-01              YY= -1.6736E+01
                  YZ= -1.2643E-01              ZZ= -1.8484E+01
      In traceless form (Debye*Ang)
                  XX=  3.2497E+00              XY= -1.7574E-01              XZ=  2.5276E-01              YY= -3.1324E-01
                  YZ= -1.8964E-01              ZZ= -2.9364E+00
--
 
      Von Neumann Entropy (Root   4) =  1.69057
 

      Mulliken population analysis for root number:  4
      -----------------------------------------------
 
 
++    Molecular charges:
      ------------------
 
      Mulliken charges per centre and basis function type
      ---------------------------------------------------
 
                S1      H2      H3    
      1s       2.0000  0.9885  1.0344
      2s       2.0025  0.0000  0.0000
      2px      2.0000  0.0000  0.0000
      2pz      2.0000  0.0000  0.0000
      2py      2.0000  0.0000  0.0000
      3s       1.9156  0.0000  0.0000
      3px      1.9411  0.0000  0.0000
      3pz      1.1557  0.0000  0.0000
      3py      1.1959  0.0000  0.0000
      *s      -0.1181 -0.0382 -0.0291
      *px      0.0277  0.0042  0.0042
      *pz     -0.0858  0.0119  0.0127
      *py     -0.0995  0.0087  0.0090
      *d2+     0.0052  0.0000  0.0000
      *d1+     0.0011  0.0000  0.0000
      *d0      0.0078  0.0000  0.0000
      *d1-     0.0445  0.0000  0.0000
      *d2-     0.0001  0.0000  0.0000
      Total   15.9938  0.9751  1.0311
 
      N-E      0.0062  0.0249 -0.0311
 
      Total electronic charge=   18.000000
 
      Total            charge=   -0.000000
--
 
 

      Expectation values of various properties for root number:  4
      -----------------------------------------------------------
 
 
++    Molecular properties:
      ---------------------
 
      Charge (e):
                      =   -0.0000
      Dipole Moment (Debye):
      Origin of the operator (Ang)=    0.0000    0.0000    0.0000
                   X=  2.5429E-02               Y=  2.2596E-01               Z= -3.2717E-01           Total=  3.9843E-01
      Quadrupole Moment (Debye*Ang):
      Origin of the operator (Ang)=   -0.0030    0.0000    0.0709
                  XX= -1.6962E+01              XY=  4.5310E-02              XZ= -1.6040E-02              YY= -1.5555E+01
                  YZ=  6.3870E-01              ZZ= -1.5811E+01
      In traceless form (Debye*Ang)
                  XX= -1.2789E+00              XY=  6.7964E-02              XZ= -2.4060E-02              YY=  8.3168E-01
                  YZ=  9.5805E-01              ZZ=  4.4721E-01
--
 
      Von Neumann Entropy (Root   5) =  1.69053
 

      Mulliken population analysis for root number:  5
      -----------------------------------------------
 
 
++    Molecular charges:
      ------------------
 
      Mulliken charges per centre and basis function type
      ---------------------------------------------------
 
                S1      H2      H3    
      1s       2.0000  1.0203  0.9723
      2s       2.0025  0.0000  0.0000
      2px      2.0000  0.0000  0.0000
      2pz      2.0000  0.0000  0.0000
      2py      2.0000  0.0000  0.0000
      3s       1.9702  0.0000  0.0000
      3px      1.9557  0.0000  0.0000
      3pz      1.1447  0.0000  0.0000
      3py      1.1491  0.0000  0.0000
      *s      -0.0971 -0.0324 -0.0407
      *px      0.0279  0.0042  0.0042
      *pz     -0.0903  0.0123  0.0113
      *py     -0.0934  0.0087  0.0083
      *d2+     0.0048  0.0000  0.0000
      *d1+     0.0011  0.0000  0.0000
      *d0      0.0075  0.0000  0.0000
      *d1-     0.0488  0.0000  0.0000
      *d2-     0.0001  0.0000  0.0000
      Total   16.0315  1.0132  0.9554
 
      N-E     -0.0315 -0.0132  0.0446
 
      Total electronic charge=   18.000000
 
      Total            charge=   -0.000000
--
 
 

      Expectation values of various properties for root number:  5
      -----------------------------------------------------------
 
 
++    Molecular properties:
      ---------------------
 
      Charge (e):
                      =   -0.0000
      Dipole Moment (Debye):
      Origin of the operator (Ang)=    0.0000    0.0000    0.0000
                   X= -1.2495E-02               Y= -2.3161E-01               Z=  1.4549E-02           Total=  2.3240E-01
      Quadrupole Moment (Debye*Ang):
      Origin of the operator (Ang)=   -0.0030    0.0000    0.0709
                  XX= -1.6996E+01              XY=  1.1112E-01              XZ= -9.0111E-02              YY= -1.5372E+01
                  YZ= -6.4650E-01              ZZ= -1.5659E+01
      In traceless form (Debye*Ang)
                  XX= -1.4804E+00              XY=  1.6669E-01              XZ= -1.3517E-01              YY=  9.5538E-01
                  YZ= -9.6975E-01              ZZ=  5.2499E-01
--
 
      Von Neumann Entropy (Root   6) =  1.64669
 

      Mulliken population analysis for root number:  6
      -----------------------------------------------
 
 
++    Molecular charges:
      ------------------
 
      Mulliken charges per centre and basis function type
      ---------------------------------------------------
 
                S1      H2      H3    
      1s       2.0000  1.0136  1.0109
      2s       2.0025  0.0000  0.0000
      2px      2.0000  0.0000  0.0000
      2pz      2.0000  0.0000  0.0000
      2py      2.0000  0.0000  0.0000
      3s       1.8958  0.0000  0.0000
      3px      1.9572  0.0000  0.0000
      3pz      1.2304  0.0000  0.0000
      3py      1.1628  0.0000  0.0000
      *s      -0.1637 -0.0324 -0.0290
      *px      0.0279  0.0042  0.0042
      *pz     -0.0975  0.0116  0.0115
      *py     -0.0837  0.0087  0.0086
      *d2+     0.0052  0.0000  0.0000
      *d1+     0.0011  0.0000  0.0000
      *d0      0.0081  0.0000  0.0000
      *d1-     0.0419  0.0000  0.0000
      *d2-     0.0001  0.0000  0.0000
      Total   15.9881  1.0057  1.0062
 
      N-E      0.0119 -0.0057 -0.0062
 
      Total electronic charge=   18.000000
 
      Total            charge=   -0.000000
--
 
 

      Expectation values of various properties for root number:  6
      -----------------------------------------------------------
 
 
++    Molecular properties:
      ---------------------
 
      Charge (e):
                      =   -0.0000
      Dipole Moment (Debye):
      Origin of the operator (Ang)=    0.0000    0.0000    0.0000
                   X= -1.5499E-02               Y=  3.6156E-03               Z=  3.7081E-01           Total=  3.7115E-01
      Quadrupole Moment (Debye*Ang):
      Origin of the operator (Ang)=   -0.0030    0.0000    0.0709
                  XX= -1.6986E+01              XY=  9.2906E-02              XZ= -5.1207E-02              YY= -1.5164E+01
                  YZ=  2.1727E-02              ZZ= -1.5756E+01
      In traceless form (Debye*Ang)
                  XX= -1.5262E+00              XY=  1.3936E-01              XZ= -7.6811E-02              YY=  1.2073E+00
                  YZ=  3.2590E-02              ZZ=  3.1891E-01
--
 
      Von Neumann Entropy (Root   7) =  1.39636
 

      Mulliken population analysis for root number:  7
      -----------------------------------------------
 
 
++    Molecular charges:
      ------------------
 
      Mulliken charges per centre and basis function type
      ---------------------------------------------------
 
                S1      H2      H3    
      1s       2.0000  1.2009  1.2000
      2s       2.0025  0.0000  0.0000
      2px      2.0000  0.0000  0.0000
      2pz      2.0000  0.0000  0.0000
      2py      2.0000  0.0000  0.0000
      3s       1.9473  0.0000  0.0000
      3px      0.2116  0.0000  0.0000
      3pz      1.7228  0.0000  0.0000
      3py      1.8140  0.0000  0.0000
      *s      -0.1151 -0.0216 -0.0229
      *px      0.0028  0.0005  0.0005
      *pz     -0.0550  0.0163  0.0161
      *py     -0.0325  0.0116  0.0115
      *d2+     0.0054  0.0000  0.0000
      *d1+     0.0004  0.0000  0.0000
      *d0      0.0084  0.0000  0.0000
      *d1-     0.0742  0.0000  0.0000
      *d2-     0.0002  0.0000  0.0000
      Total   15.5872  1.2076  1.2052
 
      N-E      0.4128 -0.2076 -0.2052
 
      Total electronic charge=   18.000000
 
      Total            charge=   -0.000000
--
 
 

      Expectation values of various properties for root number:  7
      -----------------------------------------------------------
 
 
++    Molecular properties:
      ---------------------
 
      Charge (e):
                      =   -0.0000
      Dipole Moment (Debye):
      Origin of the operator (Ang)=    0.0000    0.0000    0.0000
                   X=  8.5338E-02               Y= -1.0457E-02               Z= -2.0302E+00           Total=  2.0321E+00
      Quadrupole Moment (Debye*Ang):
      Origin of the operator (Ang)=   -0.0030    0.0000    0.0709
                  XX= -1.2170E+01              XY= -4.1457E-01              XZ=  3.8907E-01              YY= -2.0245E+01
                  YZ= -3.6689E-02              ZZ= -2.1375E+01
      In traceless form (Debye*Ang)
                  XX=  8.6401E+00              XY= -6.2186E-01              XZ=  5.8361E-01              YY= -3.4724E+00
                  YZ= -5.5034E-02              ZZ= -5.1677E+00
--
 
      Von Neumann Entropy (Root   8) =  1.73237
 

      Mulliken population analysis for root number:  8
      -----------------------------------------------
 
 
++    Molecular charges:
      ------------------
 
      Mulliken charges per centre and basis function type
      ---------------------------------------------------
 
                S1      H2      H3    
      1s       2.0000  1.0290  1.0291
      2s       2.0025  0.0000  0.0000
      2px      2.0000  0.0000  0.0000
      2pz      2.0000  0.0000  0.0000
      2py      2.0000  0.0000  0.0000
      3s       1.8796  0.0000  0.0000
      3px      1.8077  0.0000  0.0000
      3pz      1.3648  0.0000  0.0000
      3py      1.1353  0.0000  0.0000
      *s      -0.1537 -0.0402 -0.0423
      *px      0.0258  0.0039  0.0039
      *pz     -0.0808  0.0115  0.0113
      *py     -0.0724  0.0093  0.0092
      *d2+     0.0043  0.0000  0.0000
      *d1+     0.0011  0.0000  0.0000
      *d0      0.0073  0.0000  0.0000
      *d1-     0.0537  0.0000  0.0000
      *d2-     0.0001  0.0000  0.0000
      Total   15.9753  1.0134  1.0112
 
      N-E      0.0247 -0.0134 -0.0112
 
      Total electronic charge=   18.000000
 
      Total            charge=   -0.000000
--
 
 

      Expectation values of various properties for root number:  8
      -----------------------------------------------------------
 
 
++    Molecular properties:
      ---------------------
 
      Charge (e):
                      =   -0.0000
      Dipole Moment (Debye):
      Origin of the operator (Ang)=    0.0000    0.0000    0.0000
                   X= -1.3062E-02               Y= -6.3377E-03               Z=  3.0112E-01           Total=  3.0147E-01
      Quadrupole Moment (Debye*Ang):
      Origin of the operator (Ang)=   -0.0030    0.0000    0.0709
                  XX= -1.6512E+01              XY=  5.5813E-02              XZ= -8.8943E-03              YY= -1.5448E+01
                  YZ= -2.5602E-02              ZZ= -1.6336E+01
      In traceless form (Debye*Ang)
                  XX= -6.1988E-01              XY=  8.3719E-02              XZ= -1.3341E-02              YY=  9.7577E-01
                  YZ= -3.8403E-02              ZZ= -3.5589E-01
--
 
      Von Neumann Entropy (Root   9) =  2.05865
 

      Mulliken population analysis for root number:  9
      -----------------------------------------------
 
 
++    Molecular charges:
      ------------------
 
      Mulliken charges per centre and basis function type
      ---------------------------------------------------
 
                S1      H2      H3    
      1s       2.0000  1.0889  1.0662
      2s       2.0024  0.0000  0.0000
      2px      2.0000  0.0000  0.0000
      2pz      2.0000  0.0000  0.0000
      2py      2.0000  0.0000  0.0000
      3s       2.0074  0.0000  0.0000
      3px      0.9827  0.0000  0.0000
      3pz      1.5344  0.0000  0.0000
      3py      1.2404  0.0000  0.0000
      *s      -0.0794  0.0317  0.0386
      *px      0.0141  0.0021  0.0022
      *pz     -0.0583  0.0137  0.0133
      *py     -0.0068  0.0109  0.0107
      *d2+     0.0057  0.0000  0.0000
      *d1+     0.0007  0.0000  0.0000
      *d0      0.0085  0.0000  0.0000
      *d1-     0.0699  0.0000  0.0000
      *d2-     0.0002  0.0000  0.0000
      Total   15.7219  1.1472  1.1309
 
      N-E      0.2781 -0.1472 -0.1309
 
      Total electronic charge=   18.000000
 
      Total            charge=   -0.000000
--
 
 

      Expectation values of various properties for root number:  9
      -----------------------------------------------------------
 
 
++    Molecular properties:
      ---------------------
 
      Charge (e):
                      =   -0.0000
      Dipole Moment (Debye):
      Origin of the operator (Ang)=    0.0000    0.0000    0.0000
                   X=  6.3514E-02               Y= -4.9230E-02               Z= -1.5613E+00           Total=  1.5634E+00
      Quadrupole Moment (Debye*Ang):
      Origin of the operator (Ang)=   -0.0030    0.0000    0.0709
                  XX= -1.4493E+01              XY= -2.0337E-01              XZ=  2.5846E-01              YY= -1.8580E+01
                  YZ= -1.7285E-01              ZZ= -2.0792E+01
      In traceless form (Debye*Ang)
                  XX=  5.1925E+00              XY= -3.0506E-01              XZ=  3.8770E-01              YY= -9.3674E-01
                  YZ= -2.5927E-01              ZZ= -4.2557E+00
--
 
      Von Neumann Entropy (Root  10) =  2.08736
 

      Mulliken population analysis for root number: 10
      -----------------------------------------------
 
 
++    Molecular charges:
      ------------------
 
      Mulliken charges per centre and basis function type
      ---------------------------------------------------
 
                S1      H2      H3    
      1s       2.0000  1.0540  1.0753
      2s       2.0024  0.0000  0.0000
      2px      2.0000  0.0000  0.0000
      2pz      2.0000  0.0000  0.0000
      2py      2.0000  0.0000  0.0000
      3s       2.0056  0.0000  0.0000
      3px      0.9833  0.0000  0.0000
      3pz      1.1515  0.0000  0.0000
      3py      1.6342  0.0000  0.0000
      *s      -0.0865  0.0528  0.0449
      *px      0.0140  0.0021  0.0022
      *pz     -0.0493  0.0152  0.0154
      *py     -0.0169  0.0093  0.0094
      *d2+     0.0061  0.0000  0.0000
      *d1+     0.0007  0.0000  0.0000
      *d0      0.0080  0.0000  0.0000
      *d1-     0.0660  0.0000  0.0000
      *d2-     0.0002  0.0000  0.0000
      Total   15.7194  1.1335  1.1471
 
      N-E      0.2806 -0.1335 -0.1471
 
      Total electronic charge=   18.000000
 
      Total            charge=   -0.000000
--
 
 

      Expectation values of various properties for root number: 10
      -----------------------------------------------------------
 
 
++    Molecular properties:
      ---------------------
 
      Charge (e):
                      =   -0.0000
      Dipole Moment (Debye):
      Origin of the operator (Ang)=    0.0000    0.0000    0.0000
                   X=  7.9312E-02               Y=  3.6547E-02               Z= -1.8308E+00           Total=  1.8328E+00
      Quadrupole Moment (Debye*Ang):
      Origin of the operator (Ang)=   -0.0030    0.0000    0.0709
                  XX= -1.4541E+01              XY= -2.6753E-01              XZ=  2.3287E-01              YY= -1.9625E+01
                  YZ=  1.3109E-01              ZZ= -1.9864E+01
      In traceless form (Debye*Ang)
                  XX=  5.2035E+00              XY= -4.0129E-01              XZ=  3.4931E-01              YY= -2.4225E+00
                  YZ=  1.9664E-01              ZZ= -2.7810E+00
--
 
 
      Input file to MOLDEN was generated!
 
 
      Input file to MOLDEN was generated!
 
 
      Input file to MOLDEN was generated!
 
 
      Input file to MOLDEN was generated!
 
 
      Input file to MOLDEN was generated!
 
 
      Input file to MOLDEN was generated!
 
 
      Input file to MOLDEN was generated!
 
 
      Input file to MOLDEN was generated!
 
 
      Input file to MOLDEN was generated!
 
 
      Input file to MOLDEN was generated!
 
 
      Input file to MOLDEN was generated!
 
      Average orbitals are written to the RASORB file
      Natural orbitals for root   1 are written to the RASORB.1 file
      Natural orbitals for root   2 are written to the RASORB.2 file
      Natural orbitals for root   3 are written to the RASORB.3 file
      Natural orbitals for root   4 are written to the RASORB.4 file
      Natural orbitals for root   5 are written to the RASORB.5 file
      Natural orbitals for root   6 are written to the RASORB.6 file
      Natural orbitals for root   7 are written to the RASORB.7 file
      Natural orbitals for root   8 are written to the RASORB.8 file
      Natural orbitals for root   9 are written to the RASORB.9 file
      Natural orbitals for root  10 are written to the RASORB.10 file
      Spin density orbitals for root   1 are written to the SPDORB.1 file
      Spin density orbitals for root   2 are written to the SPDORB.2 file
      Spin density orbitals for root   3 are written to the SPDORB.3 file
      Spin density orbitals for root   4 are written to the SPDORB.4 file
      Spin density orbitals for root   5 are written to the SPDORB.5 file
      Spin density orbitals for root   6 are written to the SPDORB.6 file
      Spin density orbitals for root   7 are written to the SPDORB.7 file
      Spin density orbitals for root   8 are written to the SPDORB.8 file
      Spin density orbitals for root   9 are written to the SPDORB.9 file
      Spin density orbitals for root  10 are written to the SPDORB.10 file
 
 ###############################################################################
 ###############################################################################
 ###                                                                         ###
 ###                                                                         ###
 ###    WARNING: RunFile label BirthCertificate                              ###
 ###    was used       51 times                                              ###
 ###                                                                         ###
 ###                                                                         ###
 ###############################################################################
 ###############################################################################
 ###############################################################################
 ###############################################################################
 ###                                                                         ###
 ###                                                                         ###
 ###    WARNING: RunFile label nBas                                          ###
 ###    was used       59 times                                              ###
 ###                                                                         ###
 ###                                                                         ###
 ###############################################################################
 ###############################################################################
--- Stop Module: rasscf at Wed Mar 27 10:56:31 2024 /rc=_RC_ALL_IS_WELL_ ---
--- Module rasscf spent 3 seconds ---

*** symbolic link created: INPORB -> MOLCAS.RasOrb
--- Start Module: caspt2 at Wed Mar 27 10:56:31 2024 ---
 
()()()()()()()()()()()()()()()()()()()()()()()()()()()()()()()()()()()()()()()()()()()()()()()()()()

                                              &CASPT2

                                   only a single process is used
                       available to each process: 10 GB of memory, 1 thread?
                                            pid: 734538
()()()()()()()()()()()()()()()()()()()()()()()()()()()()()()()()()()()()()()()()()()()()()()()()()()
 
 ###############################################################################
 ###############################################################################
 ###                                                                         ###
 ###                                                                         ###
 ###    WARNING: Too large iRlxRoot.                                         ###
 ###                                                                         ###
 ###                                                                         ###
 ###############################################################################
 ###############################################################################
  Reset to NSTATE=                     6
 
++    Wave function specifications:
      -----------------------------
 
      Number of closed shell electrons           0
      Number of electrons in active shells       8
      Max number of holes in RAS1 space          0
      Max number of electrons in RAS3 space      0
      Number of inactive orbitals                0
      Number of active orbitals                  6
      Number of secondary orbitals              17
      Spin quantum number                      0.0
      State symmetry                             1
      Number of CSFs                           105
      Number of CASSCF root(s) available        10
      CASPT2 state passed to geometry opt.       6
      A file JOBMIX will be created
      This is a MULTI-STATE CASSCF reference
      Number of CI roots used                    6
      These are:                                 1   2   3   4   5   6
      Off-diagonal elements of Heff are computed
--
 
++    Orbital specifications:
      -----------------------
 
      Symmetry species                           1
                                                 a
      Frozen orbitals                            5
      Inactive orbitals                          0
      Active orbitals                            6
      Secondary orbitals                        17
      Deleted orbitals                           0
      Number of basis functions                 28
--
 
++    CASPT2 specifications:
      ----------------------
 
      Type of calculation                        XMS-CASPT2
      Fock operator                              state-average
      IPEA shift                                 0.25
      Real shift                                 0.00
      Imaginary shift                            0.00
      The input orbitals will be transformed to quasi-canonical
      The input states will be rotated to diagonalize the Fock operator
--
 
--------------------------------------------------------------------------------
 Estimated memory requirements:
  POLY3 :                   257654
  RHS:                      259460
  SIGMA :                   264688
  PRPCTL:                        0
 Available workspace:   1124990452
 
++ CASPT2 computation for group   1
 
********************************************************************************
 Multi-State initialization phase begins for group   1
--------------------------------------------------------------------------------
 
  H0 in the original model space basis:
                1               2               3               4               5
   1       -4.47890593     -0.00000000      0.00000000     -0.01302011     -0.00073907
   2       -0.00000000     -4.09235295      0.00001776      0.00000000      0.00000000
   3        0.00000000      0.00001776     -4.04851582     -0.00000000      0.00000000
   4       -0.01302011      0.00000000     -0.00000000     -3.92799109      0.00057377
   5       -0.00073907      0.00000000      0.00000000      0.00057377     -3.93318564
   6       -0.00036150     -0.00000000      0.00000000     -0.00104491      0.01665553
 
                6
   1       -0.00036150
   2       -0.00000000
   3        0.00000000
   4       -0.00104491
   5        0.01665553
   6       -3.96329674
 
  H0 eigenvectors:
                1               2               3               4               5
   1        0.99972005     -0.00000000      0.00000000     -0.02345891     -0.00298464
   2        0.00000000      0.99999992      0.00040508      0.00000000      0.00000000
   3       -0.00000000     -0.00040508      0.99999992     -0.00000000      0.00000000
   4        0.02361374     -0.00000000      0.00000000      0.99730403      0.06378043
   5        0.00130681     -0.00000000     -0.00000000     -0.04719457      0.91275873
   6        0.00070613      0.00000000     -0.00000000     -0.05105912      0.40347818
 
                6
   1       -0.00076567
   2       -0.00000000
   3        0.00000000
   4        0.02755231
   5       -0.40576158
   6        0.91356326
 
********************************************************************************
 Compute H0 matrices for state    1
--------------------------------------------------------------------------------
--------------------------------------------------------------------------------
 H0 matrices have been computed.
 
********************************************************************************
  CASPT2 EQUATION SOLUTION
--------------------------------------------------------------------------------
 
  Total nr of CASPT2 parameters:
   Before reduction:        8925
   After  reduction:        8466
 
 Variance of |WF0>:       0.3249382640
 
 The contributions to the second order correlation energy in atomic units.
-----------------------------------------------------------------------------------------------------------------------------
  IT.      VJTU        VJTI        ATVX        AIVX        VJAI        BVAT        BJAT        BJAI        TOTAL       RNORM  
-----------------------------------------------------------------------------------------------------------------------------
   1     0.000000    0.000000   -0.047204    0.000000    0.000000   -0.085842    0.000000    0.000000   -0.133045    0.000450
   2     0.000000    0.000000   -0.047248    0.000000    0.000000   -0.085847    0.000000    0.000000   -0.133095    0.000015
-----------------------------------------------------------------------------------------------------------------------------
 
  FINAL CASPT2 RESULT:
 
      Reference energy:        -398.6907961259
      E2 (Non-variational):      -0.1330959055
      E2 (Variational):          -0.1330958760
      Total energy:            -398.8238920018
      Residual norm:              0.0000005058
      Reference weight:           0.94456
 
      Contributions to the CASPT2 correlation energy
      Active & Virtual Only:         -0.1330959055
      One Inactive Excited:           0.0000000000
      Two Inactive Excited:           0.0000000000
 
 
++ Denominators, etc.
--------------------------------------------------------------------------------------------------------------
 Report on small energy denominators, large coefficients, and large energy contributions.
CASE  SYMM ACTIVE-MIX  NON-ACTIVE INDICES          DENOMINATOR     RHS VALUE       COEFFICIENT     CONTRIBUTION
ATVX     1  Mu1.0020  Se1.013                       1.58701588      0.05689003     -0.03488993     -0.00198489
ATVX     1  Mu1.0001  Se1.015                       1.00872978     -0.02973422      0.02723165     -0.00080971
ATVX     1  Mu1.0012  Se1.015                       1.55719205     -0.04619858      0.02872912     -0.00132724
ATVX     1  Mu1.0026  Se1.015                       2.03228543      0.05133778     -0.02519075     -0.00129324
ATVX     1  Mu1.0015  Se1.016                       1.69948841      0.05441181     -0.03185656     -0.00173337
ATVX     1  Mu1.0019  Se1.017                       1.76359594     -0.04693517      0.02611505     -0.00122571
ATVX     1  Mu1.0011  Se1.018                       1.63507526     -0.04719479      0.02867083     -0.00135311
ATVX     1  Mu1.0026  Se1.018                       2.11818546     -0.05908251      0.02751516     -0.00162566
ATVX     1  Mu1.0006  Se1.019                       1.60568003     -0.04556973      0.02829568     -0.00128943
ATVX     1  Mu1.0008  Se1.019                       1.62021778      0.05270738     -0.03244211     -0.00170994
ATVX     1  Mu1.0024  Se1.019                       2.10091142     -0.06030499      0.02844147     -0.00171516
ATVX     1  Mu1.0037  Se1.021                       2.55313699     -0.06560411      0.02536029     -0.00166374
BVATP    1  Mu1.0006  Se1.012 Se1.012               1.95142883     -0.04972654      0.02529945     -0.00125805
BVATP    1  Mu1.0005  Se1.013 Se1.012               1.99858217      0.05215072     -0.02571736     -0.00134118
BVATP    1  Mu1.0002  Se1.015 Se1.014               2.12874311      0.05494869     -0.02539418     -0.00139538
BVATP    1  Mu1.0001  Se1.015 Se1.015               2.04103995     -0.07351747      0.03575330     -0.00262849
BVATP    1  Mu1.0006  Se1.016 Se1.016               2.39340469     -0.06811721      0.02843847     -0.00193715
BVATP    1  Mu1.0001  Se1.018 Se1.018               2.21284000     -0.07562353      0.03416896     -0.00258398
BVATP    1  Mu1.0001  Se1.019 Se1.019               2.23816927     -0.07651083      0.03418456     -0.00261549
BVATM    1  Mu1.0001  Se1.015 Se1.014               2.12874311      0.06304817     -0.02878370     -0.00181476
BVATM    1  Mu1.0001  Se1.018 Se1.013               2.12425682     -0.08259520      0.03816752     -0.00315245
BVATM    1  Mu1.0002  Se1.019 Se1.013               2.14335873      0.06172515     -0.02834855     -0.00174982
BVATM    1  Mu1.0002  Se1.019 Se1.016               2.30614053      0.06829372     -0.02949830     -0.00201455
BVATM    1  Mu1.0002  Se1.020 Se1.019               2.36615433     -0.05997883      0.02570493     -0.00154175
--
 
   (Skipping property calculation,
    use PROP keyword to activate)
********************************************************************************
 Compute H0 matrices for state    2
--------------------------------------------------------------------------------
--------------------------------------------------------------------------------
 H0 matrices have been computed.
 
********************************************************************************
  CASPT2 EQUATION SOLUTION
--------------------------------------------------------------------------------
 
  Total nr of CASPT2 parameters:
   Before reduction:        8925
   After  reduction:        7820
 
 Variance of |WF0>:       0.3203029300
 
 The contributions to the second order correlation energy in atomic units.
-----------------------------------------------------------------------------------------------------------------------------
  IT.      VJTU        VJTI        ATVX        AIVX        VJAI        BVAT        BJAT        BJAI        TOTAL       RNORM  
-----------------------------------------------------------------------------------------------------------------------------
   1     0.000000    0.000000   -0.052580    0.000000    0.000000   -0.079739    0.000000    0.000000   -0.132319    0.000659
   2     0.000000    0.000000   -0.052635    0.000000    0.000000   -0.079764    0.000000    0.000000   -0.132399    0.000028
   3     0.000000    0.000000   -0.052636    0.000000    0.000000   -0.079764    0.000000    0.000000   -0.132400    0.000001
-----------------------------------------------------------------------------------------------------------------------------
 
  FINAL CASPT2 RESULT:
 
      Reference energy:        -398.5101853957
      E2 (Non-variational):      -0.1324003232
      E2 (Variational):          -0.1324003217
      Total energy:            -398.6425857175
      Residual norm:              0.0000000456
      Reference weight:           0.94345
 
      Contributions to the CASPT2 correlation energy
      Active & Virtual Only:         -0.1324003232
      One Inactive Excited:           0.0000000000
      Two Inactive Excited:           0.0000000000
 
 
++ Denominators, etc.
--------------------------------------------------------------------------------------------------------------
 Report on small energy denominators, large coefficients, and large energy contributions.
CASE  SYMM ACTIVE-MIX  NON-ACTIVE INDICES          DENOMINATOR     RHS VALUE       COEFFICIENT     CONTRIBUTION
ATVX     1  Mu1.0027  Se1.013                       1.59540501     -0.07270776      0.04485273     -0.00326114
ATVX     1  Mu1.0030  Se1.016                       1.78095873      0.06995264     -0.03912167     -0.00273666
ATVX     1  Mu1.0008  Se1.020                       1.31245453      0.03987713     -0.03019585     -0.00120412
ATVX     1  Mu1.0011  Se1.021                       1.61559678     -0.07279937      0.04465269     -0.00325069
ATVX     1  Mu1.0008  Se1.022                       1.62464107      0.06463028     -0.03936088     -0.00254390
BVATP    1  Mu1.0007  Se1.016 Se1.016               2.40012763     -0.06996739      0.02909582     -0.00203576
BVATM    1  Mu1.0005  Se1.016 Se1.012               2.16428672      0.05960003     -0.02741855     -0.00163415
--
 
   (Skipping property calculation,
    use PROP keyword to activate)
********************************************************************************
 Compute H0 matrices for state    3
--------------------------------------------------------------------------------
--------------------------------------------------------------------------------
 H0 matrices have been computed.
 
********************************************************************************
  CASPT2 EQUATION SOLUTION
--------------------------------------------------------------------------------
 
  Total nr of CASPT2 parameters:
   Before reduction:        8925
   After  reduction:        7820
 
 Variance of |WF0>:       0.3198461424
 
 The contributions to the second order correlation energy in atomic units.
-----------------------------------------------------------------------------------------------------------------------------
  IT.      VJTU        VJTI        ATVX        AIVX        VJAI        BVAT        BJAT        BJAI        TOTAL       RNORM  
-----------------------------------------------------------------------------------------------------------------------------
   1     0.000000    0.000000   -0.058397    0.000000    0.000000   -0.080081    0.000000    0.000000   -0.138478    0.000769
   2     0.000000    0.000000   -0.058453    0.000000    0.000000   -0.080111    0.000000    0.000000   -0.138565    0.000028
   3     0.000000    0.000000   -0.058454    0.000000    0.000000   -0.080112    0.000000    0.000000   -0.138567    0.000001
-----------------------------------------------------------------------------------------------------------------------------
 
  FINAL CASPT2 RESULT:
 
      Reference energy:        -398.4761465653
      E2 (Non-variational):      -0.1385665562
      E2 (Variational):          -0.1385665549
      Total energy:            -398.6147131203
      Residual norm:              0.0000000417
      Reference weight:           0.93237
 
      Contributions to the CASPT2 correlation energy
      Active & Virtual Only:         -0.1385665562
      One Inactive Excited:           0.0000000000
      Two Inactive Excited:           0.0000000000
 
 
++ Denominators, etc.
--------------------------------------------------------------------------------------------------------------
 Report on small energy denominators, large coefficients, and large energy contributions.
CASE  SYMM ACTIVE-MIX  NON-ACTIVE INDICES          DENOMINATOR     RHS VALUE       COEFFICIENT     CONTRIBUTION
ATVX     1  Mu1.0001  Se1.013                       0.48180863     -0.04683942      0.09561978     -0.00447878
ATVX     1  Mu1.0009  Se1.013                       1.04923125     -0.02908800      0.02727873     -0.00079348
ATVX     1  Mu1.0032  Se1.013                       1.61755843     -0.05560532      0.03401394     -0.00189136
ATVX     1  Mu1.0034  Se1.013                       1.62646368     -0.04713443      0.02888592     -0.00136152
ATVX     1  Mu1.0024  Se1.016                       1.69913062     -0.06162632      0.03623995     -0.00223333
ATVX     1  Mu1.0030  Se1.017                       1.78409047     -0.04603444      0.02546410     -0.00117223
ATVX     1  Mu1.0002  Se1.018                       0.88553174      0.02841550     -0.03166081     -0.00089966
ATVX     1  Mu1.0004  Se1.018                       1.10086002     -0.03859431      0.03413216     -0.00131731
ATVX     1  Mu1.0047  Se1.018                       2.08330173     -0.06030068      0.02889993     -0.00174269
ATVX     1  Mu1.0003  Se1.019                       0.90847562      0.02875351     -0.03123555     -0.00089813
ATVX     1  Mu1.0045  Se1.019                       2.05382607     -0.06180779      0.03004015     -0.00185672
ATVX     1  Mu1.0032  Se1.020                       1.84035403     -0.05440676      0.02956323     -0.00160844
ATVX     1  Mu1.0011  Se1.022                       1.64132411     -0.05542457      0.03313675     -0.00183659
BVATP    1  Mu1.0006  Se1.016 Se1.016               2.39022828      0.07761667     -0.03244483     -0.00251826
BVATM    1  Mu1.0005  Se1.016 Se1.012               2.15230942     -0.06094423      0.02801589     -0.00170741
BVATM    1  Mu1.0004  Se1.018 Se1.013               2.24013218     -0.05749553      0.02505680     -0.00144065
--
 
   (Skipping property calculation,
    use PROP keyword to activate)
********************************************************************************
 Compute H0 matrices for state    4
--------------------------------------------------------------------------------
--------------------------------------------------------------------------------
 H0 matrices have been computed.
 
********************************************************************************
  CASPT2 EQUATION SOLUTION
--------------------------------------------------------------------------------
 
  Total nr of CASPT2 parameters:
   Before reduction:        8925
   After  reduction:        8466
 
 Variance of |WF0>:       0.3160339937
 
 The contributions to the second order correlation energy in atomic units.
-----------------------------------------------------------------------------------------------------------------------------
  IT.      VJTU        VJTI        ATVX        AIVX        VJAI        BVAT        BJAT        BJAI        TOTAL       RNORM  
-----------------------------------------------------------------------------------------------------------------------------
   1     0.000000    0.000000   -0.050793    0.000000    0.000000   -0.085770    0.000000    0.000000   -0.136563    0.000733
   2     0.000000    0.000000   -0.050848    0.000000    0.000000   -0.085802    0.000000    0.000000   -0.136650    0.000031
   3     0.000000    0.000000   -0.050849    0.000000    0.000000   -0.085803    0.000000    0.000000   -0.136651    0.000001
-----------------------------------------------------------------------------------------------------------------------------
 
  FINAL CASPT2 RESULT:
 
      Reference energy:        -398.3519344702
      E2 (Non-variational):      -0.1366513107
      E2 (Variational):          -0.1366513094
      Total energy:            -398.4885857796
      Residual norm:              0.0000000569
      Reference weight:           0.93703
 
      Contributions to the CASPT2 correlation energy
      Active & Virtual Only:         -0.1366513107
      One Inactive Excited:           0.0000000000
      Two Inactive Excited:           0.0000000000
 
 
++ Denominators, etc.
--------------------------------------------------------------------------------------------------------------
 Report on small energy denominators, large coefficients, and large energy contributions.
CASE  SYMM ACTIVE-MIX  NON-ACTIVE INDICES          DENOMINATOR     RHS VALUE       COEFFICIENT     CONTRIBUTION
ATVX     1  Mu1.0002  Se1.013                       0.47852968     -0.02106568      0.04344780     -0.00091526
ATVX     1  Mu1.0017  Se1.013                       1.06171599     -0.02808096      0.02672596     -0.00075049
ATVX     1  Mu1.0021  Se1.013                       1.11599895      0.03419832     -0.02991517     -0.00102305
ATVX     1  Mu1.0017  Se1.016                       1.22449779     -0.03203018      0.02573200     -0.00082420
ATVX     1  Mu1.0003  Se1.017                       0.67001902      0.01763587     -0.02512548     -0.00044311
ATVX     1  Mu1.0018  Se1.018                       1.27373054     -0.05096648      0.03987460     -0.00203227
ATVX     1  Mu1.0045  Se1.018                       1.87119202     -0.05513321      0.02941662     -0.00162183
ATVX     1  Mu1.0034  Se1.019                       1.75264814     -0.06113046      0.03477997     -0.00212612
ATVX     1  Mu1.0014  Se1.021                       1.52684467      0.05158617     -0.03330478     -0.00171807
ATVX     1  Mu1.0022  Se1.021                       1.63290801     -0.06122857      0.03730664     -0.00228423
BVATP    1  Mu1.0006  Se1.015 Se1.015               2.04343526      0.07332135     -0.03583240     -0.00262728
BVATP    1  Mu1.0006  Se1.018 Se1.018               2.21523531      0.07540623     -0.03403312     -0.00256631
BVATP    1  Mu1.0006  Se1.019 Se1.019               2.24056458      0.07588537     -0.03386881     -0.00257015
[...]
  Sum of SVs (Omega):               0.903794
  Participation ratio (PR_NTO):     1.000060
  Entanglement entropy (S_HE):      0.132342
  Nr of entangled states (Z_HE):    1.096071
  Renormalized S_HE/Z_HE:  0.000495 /  1.000343

CT numbers (Mulliken)
  omega        =     0.9159 (alpha:     0.0121, beta:     0.9038)
 2<alpha|beta> =    -0.0159
  LOC          =     0.0039 (alpha:     0.0001, beta:     0.0038)
  <Phe>        =     0.0208 (alpha:     0.7744, beta:     0.0106)

CT numbers (Lowdin)
  omega        =     0.9159 (alpha:     0.0121, beta:     0.9038)
 2<alpha|beta> =    -0.0159
  LOC          =     0.0019 (alpha:     0.0000, beta:     0.0018)
  <Phe>        =     0.0208 (alpha:     0.7744, beta:     0.0106)

Exciton analysis of the transition density matrix
Total:
  Trans. dipole moment [D]:             0.010285
    Cartesian components [D]:         [  0.010262,  -0.000526,   0.000434]
  Transition <r^2> [a.u.]:              0.102773
    Cartesian components [a.u.]:      [  0.072309,  -0.073028,   0.000719]
  <r_h> [Ang]:                        [ -0.020888,   0.002745,   0.497992]
  <r_e> [Ang]:                        [ -0.001423,   0.000028,   0.034524]
  |<r_e - r_h>| [Ang]:                  0.463884
  Hole size [Ang]:                      1.241844
    Cartesian components [Ang]:       [  0.476961,   0.951516,   0.639768]
  Electron size [Ang]:                  1.144399
    Cartesian components [Ang]:       [  0.873452,   0.521544,   0.524138]
  RMS electron-hole separation [Ang]:   1.752579
    Cartesian components [Ang]:       [  0.995388,   1.085080,   0.950441]
  Covariance(r_h, r_e) [Ang^2]:        -0.002260
  Correlation coefficient:             -0.001591
  Center-of-mass size [Ang]:            0.843698
    Cartesian components [Ang]:       [  0.497595,   0.542538,   0.412162]

Alpha spin:
  Trans. dipole moment [D]:             0.000034
    Cartesian components [D]:         [ -0.000034,   0.000002,  -0.000001]
  Transition <r^2> [a.u.]:              0.008556
    Cartesian components [a.u.]:      [ -0.006053,   0.006047,   0.000007]
  <r_h> [Ang]:                        [ -0.003521,  -0.000284,   0.083729]
  <r_e> [Ang]:                        [ -0.016840,  -0.004997,   0.392901]
  |<r_e - r_h>| [Ang]:                  0.309495
  Hole size [Ang]:                      1.200599
    Cartesian components [Ang]:       [  0.816145,   0.622717,   0.622550]
  Electron size [Ang]:                  1.409944
    Cartesian components [Ang]:       [  0.566509,   0.926201,   0.899534]
  RMS electron-hole separation [Ang]:   1.887984
    Cartesian components [Ang]:       [  0.993617,   1.116087,   1.153932]
  Covariance(r_h, r_e) [Ang^2]:        -0.019659
  Correlation coefficient:             -0.011613
  Center-of-mass size [Ang]:            0.920606
    Cartesian components [Ang]:       [  0.496727,   0.558037,   0.537933]

Beta spin:
  Trans. dipole moment [D]:             0.010319
    Cartesian components [D]:         [  0.010296,  -0.000528,   0.000436]
  Transition <r^2> [a.u.]:              0.111328
    Cartesian components [a.u.]:      [  0.078362,  -0.079075,   0.000712]
  <r_h> [Ang]:                        [ -0.021121,   0.002786,   0.503556]
  <r_e> [Ang]:                        [ -0.001216,   0.000096,   0.029711]
  |<r_e - r_h>| [Ang]:                  0.474270
  Hole size [Ang]:                      1.241447
    Cartesian components [Ang]:       [  0.470741,   0.955162,   0.638168]
  Electron size [Ang]:                  1.139643
    Cartesian components [Ang]:       [  0.876842,   0.513945,   0.515553]
  RMS electron-hole separation [Ang]:   1.750689
    Cartesian components [Ang]:       [  0.995412,   1.084657,   0.947411]
  Covariance(r_h, r_e) [Ang^2]:        -0.000003
  Correlation coefficient:             -0.000002
  Center-of-mass size [Ang]:            0.842611
    Cartesian components [Ang]:       [  0.497606,   0.542327,   0.410198]

  RASSI analysis for state D4
  ---------------------------
Energy: 7.1389 eV

Using spin-traced density matrices ...

NOs
  Occupation of frontier NOs:
     0.0549   0.0626   0.9873   1.9499   1.9678   1.9775
  Number of electrons: 17.000000
  Number of unpaired electrons: n_u =  1.20952, n_u,nl =  1.04130
  NO participation ratio (PR_NO):  1.484074

NDOs
  Leading detachment eigenvalues:
    -0.9451  -0.0918  -0.0251
  Leading attachment eigenvalues:
     0.9660   0.1162   0.0000
  Number of detached / attached electrons: p_D =  1.0822, p_A =  1.0822
  Number of involved orbitals: PR_D =  1.297468, PR_A =  1.237091

Mulliken Population Analysis
    Atom      Charge (e)              h+              e-           Del q
------------------------------------------------------------------------
1 S1            0.794696        0.963589       -0.711721        0.251867
2 H2            0.107635        0.058997       -0.179736       -0.120740
3 H3            0.097669        0.059638       -0.190766       -0.131128
------------------------------------------------------------------------
    Sum:        1.000000        1.082224       -1.082224       -0.000000

Lowdin Population Analysis
    Atom      Charge (e)              h+              e-           Del q
------------------------------------------------------------------------
1 S1            0.912146        0.983247       -0.670454        0.312793
2 H2            0.049165        0.049188       -0.199969       -0.150781
3 H3            0.038689        0.049789       -0.211801       -0.162012
------------------------------------------------------------------------
    Sum:        1.000000        1.082224       -1.082224       -0.000000

Multipole moment analysis of the density matrix
  Molecular charge:                      1.000000
  Number of electrons:                   17.000000
    Center of electronic charge [Ang]: [ -0.005174,  -0.000504,   0.122557]
  Total nuclear charge:                  18.000000
    Center of nuclear charge [Ang]:    [ -0.005882,   0.000000,   0.139960]
  Dipole moment [D]:                     1.422819
    Cartesian components [D]:          [ -0.057824,   0.041188,   1.421047]
  RMS size of the density [Ang]:         0.816433
    Cartesian components [Ang]:        [  0.336285,   0.513474,   0.538349]

Exciton analysis of the difference density matrix
  <r_h> [Ang]:                  [ -0.005762,  -0.000700,   0.136206]
  <r_e> [Ang]:                  [ -0.014890,  -0.008570,   0.342487]
  |<r_e - r_h>| [Ang]:            0.206633
  Hole size [Ang]:                1.204547
    Cartesian components [Ang]: [  0.838749,   0.594956,   0.627266]
  Electron size [Ang]:            1.392572
    Cartesian components [Ang]: [  0.473882,   0.935378,   0.916385]

  RASSI analysis for transiton from state 1 to 4 (D1-D4)
  ------------------------------------------------------
Energy: 7.1389 eV

NTOs (alpha)
  Leading SVs:
     0.8828   0.0000   0.0000
  Sum of SVs (Omega):               0.882796
  Participation ratio (PR_NTO):     1.000059
  Entanglement entropy (S_HE):      0.159199
  Nr of entangled states (Z_HE):    1.116667
  Renormalized S_HE/Z_HE:  0.000486 /  1.000337
NTOs (beta)
  Leading SVs:
     0.0111   0.0023   0.0000
  Sum of SVs (Omega):               0.013399
  Participation ratio (PR_NTO):     1.404860
  Entanglement entropy (S_HE):      0.092316
  Nr of entangled states (Z_HE):    1.066080
  Renormalized S_HE/Z_HE:  0.668044 /  1.588917

CT numbers (Mulliken)
  omega        =     0.8962 (alpha:     0.8828, beta:     0.0134)
 2<alpha|beta> =    -0.0170
  LOC          =     0.0020 (alpha:     0.0020, beta:     0.0000)
  <Phe>        =    -0.0215 (alpha:    -0.0107, beta:    -0.7302)

CT numbers (Lowdin)
  omega        =     0.8962 (alpha:     0.8828, beta:     0.0134)
 2<alpha|beta> =    -0.0170
  LOC          =     0.0011 (alpha:     0.0011, beta:     0.0000)
  <Phe>        =    -0.0215 (alpha:    -0.0107, beta:    -0.7302)

Exciton analysis of the transition density matrix
Total:
  Trans. dipole moment [D]:             0.002562
    Cartesian components [D]:         [ -0.002557,   0.000131,  -0.000108]
  Transition <r^2> [a.u.]:              0.053099
    Cartesian components [a.u.]:      [  0.037634,  -0.037459,  -0.000174]
  <r_h> [Ang]:                        [ -0.001516,   0.000352,   0.037100]
  <r_e> [Ang]:                        [ -0.021960,  -0.014591,   0.502313]
  |<r_e - r_h>| [Ang]:                  0.465903
  Hole size [Ang]:                      1.143113
    Cartesian components [Ang]:       [  0.872962,   0.522330,   0.521359]
  Electron size [Ang]:                  1.454530
    Cartesian components [Ang]:       [  0.472550,   0.999711,   0.944950]
  RMS electron-hole separation [Ang]:   1.909561
    Cartesian components [Ang]:       [  0.992872,   1.128037,   1.178202]
  Covariance(r_h, r_e) [Ang^2]:        -0.003496
  Correlation coefficient:             -0.002103
  Center-of-mass size [Ang]:            0.924036
    Cartesian components [Ang]:       [  0.496325,   0.563972,   0.537996]

Alpha spin:
  Trans. dipole moment [D]:             0.004059
    Cartesian components [D]:         [  0.004050,  -0.000208,   0.000171]
  Transition <r^2> [a.u.]:              0.047399
    Cartesian components [a.u.]:      [  0.033635,  -0.033396,  -0.000239]
  <r_h> [Ang]:                        [ -0.001217,   0.000096,   0.029726]
  <r_e> [Ang]:                        [ -0.022243,  -0.014774,   0.508791]
  |<r_e - r_h>| [Ang]:                  0.479757
  Hole size [Ang]:                      1.139659
    Cartesian components [Ang]:       [  0.876842,   0.513954,   0.515579]
  Electron size [Ang]:                  1.457656
    Cartesian components [Ang]:       [  0.465244,   1.004541,   0.948265]
  RMS electron-hole separation [Ang]:   1.911483
    Cartesian components [Ang]:       [  0.992847,   1.128482,   1.180911]
  Covariance(r_h, r_e) [Ang^2]:        -0.000009
  Correlation coefficient:             -0.000006
  Center-of-mass size [Ang]:            0.925144
    Cartesian components [Ang]:       [  0.496312,   0.564192,   0.539678]

Beta spin:
  Trans. dipole moment [D]:             0.006621
    Cartesian components [D]:         [ -0.006607,   0.000339,  -0.000279]
  Transition <r^2> [a.u.]:              0.005701
    Cartesian components [a.u.]:      [  0.003999,  -0.004063,   0.000065]
  <r_h> [Ang]:                        [ -0.021202,   0.017193,   0.522934]
  <r_e> [Ang]:                        [ -0.003287,  -0.002483,   0.075548]
  |<r_e - r_h>| [Ang]:                  0.448177
  Hole size [Ang]:                      1.259351
    Cartesian components [Ang]:       [  0.560733,   0.918944,   0.653516]
  Electron size [Ang]:                  1.153448
    Cartesian components [Ang]:       [  0.821171,   0.601276,   0.542761]
  RMS electron-hole separation [Ang]:   1.778312
    Cartesian components [Ang]:       [  0.994512,   1.098312,   0.983386]
  Covariance(r_h, r_e) [Ang^2]:        -0.022561
  Correlation coefficient:             -0.015532
  Center-of-mass size [Ang]:            0.847243
    Cartesian components [Ang]:       [  0.497181,   0.549108,   0.411233]

  RASSI analysis for state D5
  ---------------------------
Energy: 7.9442 eV

Using spin-traced density matrices ...

NOs
  Occupation of frontier NOs:
     0.1162   0.1540   0.9343   1.9220   1.9302   1.9434
  Number of electrons: 17.000000
  Number of unpaired electrons: n_u =  1.40891, n_u,nl =  1.17282
  NO participation ratio (PR_NO):  2.147546

NDOs
  Leading detachment eigenvalues:
    -0.8460  -0.1599  -0.0610
  Leading attachment eigenvalues:
     0.9165   0.1968   0.0000
  Number of detached / attached electrons: p_D =  1.1132, p_A =  1.1132
  Number of involved orbitals: PR_D =  1.658589, PR_A =  1.410540

Mulliken Population Analysis
    Atom      Charge (e)              h+              e-           Del q
------------------------------------------------------------------------
1 S1            0.854471        0.935715       -0.624072        0.311642
2 H2            0.066851        0.088988       -0.250512       -0.161524
3 H3            0.078678        0.088541       -0.238660       -0.150119
------------------------------------------------------------------------
    Sum:        1.000000        1.113244       -1.113244       -0.000000

Lowdin Population Analysis
    Atom      Charge (e)              h+              e-           Del q
------------------------------------------------------------------------
1 S1            0.932074        0.954533       -0.621812        0.332721
2 H2            0.027638        0.079454       -0.251762       -0.172308
3 H3            0.040288        0.079257       -0.239670       -0.160413
------------------------------------------------------------------------
    Sum:        1.000000        1.113244       -1.113244       -0.000000

Multipole moment analysis of the density matrix
  Molecular charge:                      1.000000
  Number of electrons:                   17.000000
    Center of electronic charge [Ang]: [ -0.005426,   0.000530,   0.129765]
  Total nuclear charge:                  18.000000
    Center of nuclear charge [Ang]:    [ -0.005882,   0.000000,   0.139960]
  Dipole moment [D]:                     0.834432
    Cartesian components [D]:          [ -0.037260,  -0.043255,   0.832477]
  RMS size of the density [Ang]:         0.826271
    Cartesian components [Ang]:        [  0.345736,   0.510451,   0.550119]

Exciton analysis of the difference density matrix
  <r_h> [Ang]:                  [ -0.008335,   0.000708,   0.198757]
  <r_e> [Ang]:                  [ -0.021055,   0.008850,   0.509363]
  |<r_e - r_h>| [Ang]:            0.310972
  Hole size [Ang]:                1.223392
    Cartesian components [Ang]: [  0.799568,   0.645094,   0.664254]
  Electron size [Ang]:            1.456663
    Cartesian components [Ang]: [  0.521538,   0.935582,   0.987193]

  RASSI analysis for transiton from state 1 to 5 (D1-D5)
  ------------------------------------------------------
Energy: 7.9442 eV

NTOs (alpha)
  Leading SVs:
     0.8273   0.0001   0.0000
  Sum of SVs (Omega):               0.827417
  Participation ratio (PR_NTO):     1.000299
  Entanglement entropy (S_HE):      0.227892
  Nr of entangled states (Z_HE):    1.171123
  Renormalized S_HE/Z_HE:  0.002113 /  1.001466
NTOs (beta)
  Leading SVs:
     0.0417   0.0021   0.0000
  Sum of SVs (Omega):               0.043767
  Participation ratio (PR_NTO):     1.101261
  Entanglement entropy (S_HE):      0.209785
  Nr of entangled states (Z_HE):    1.156516
  Renormalized S_HE/Z_HE:  0.279168 /  1.213495

CT numbers (Mulliken)
  omega        =     0.8712 (alpha:     0.8274, beta:     0.0438)
 2<alpha|beta> =    -0.0161
  LOC          =     0.0011 (alpha:     0.0011, beta:     0.0000)
  <Phe>        =     0.0420 (alpha:     0.0225, beta:     0.4098)

CT numbers (Lowdin)
  omega        =     0.8712 (alpha:     0.8274, beta:     0.0438)
 2<alpha|beta> =    -0.0161
  LOC          =     0.0006 (alpha:     0.0006, beta:     0.0000)
  <Phe>        =     0.0420 (alpha:     0.0225, beta:     0.4098)

Exciton analysis of the transition density matrix
Total:
  Trans. dipole moment [D]:             0.248083
    Cartesian components [D]:         [  0.247537,  -0.012697,   0.010470]
  Transition <r^2> [a.u.]:              0.018183
    Cartesian components [a.u.]:      [ -0.012611,  -0.000493,   0.013090]
  <r_h> [Ang]:                        [ -0.001608,  -0.000066,   0.038769]
  <r_e> [Ang]:                        [ -0.028075,   0.014968,   0.682746]
  |<r_e - r_h>| [Ang]:                  0.644696
  Hole size [Ang]:                      1.132772
    Cartesian components [Ang]:       [  0.863376,   0.517148,   0.519915]
  Electron size [Ang]:                  1.494527
    Cartesian components [Ang]:       [  0.551897,   0.972542,   0.991556]
  RMS electron-hole separation [Ang]:   1.983331
    Cartesian components [Ang]:       [  1.019856,   1.101578,   1.296156]
  Covariance(r_h, r_e) [Ang^2]:        -0.000592
  Correlation coefficient:             -0.000349
  Center-of-mass size [Ang]:            0.937497
    Cartesian components [Ang]:       [  0.514930,   0.550753,   0.557153]

Alpha spin:
  Trans. dipole moment [D]:             0.356894
    Cartesian components [D]:         [ -0.356108,   0.018266,  -0.015063]
  Transition <r^2> [a.u.]:              0.024500
    Cartesian components [a.u.]:      [ -0.017064,  -0.000490,   0.017574]
  <r_h> [Ang]:                        [ -0.001218,   0.000096,   0.029749]
  <r_e> [Ang]:                        [ -0.029450,   0.015720,   0.716158]
  |<r_e - r_h>| [Ang]:                  0.687167
  Hole size [Ang]:                      1.139677
    Cartesian components [Ang]:       [  0.876809,   0.513976,   0.515655]
  Electron size [Ang]:                  1.503866
    Cartesian components [Ang]:       [  0.530366,   0.990837,   0.999282]
  RMS electron-hole separation [Ang]:   2.008046
    Cartesian components [Ang]:       [  1.024888,   1.116321,   1.317453]
  Covariance(r_h, r_e) [Ang^2]:         0.000213
  Correlation coefficient:              0.000124
  Center-of-mass size [Ang]:            0.943518
    Cartesian components [Ang]:       [  0.512485,   0.558106,   0.562229]

Beta spin:
  Trans. dipole moment [D]:             0.604977
    Cartesian components [D]:         [  0.603645,  -0.030963,   0.025533]
  Transition <r^2> [a.u.]:              0.006320
    Cartesian components [a.u.]:      [  0.004454,  -0.000003,  -0.004483]
  <r_h> [Ang]:                        [ -0.008977,  -0.003125,   0.209289]
  <r_e> [Ang]:                        [ -0.002088,   0.000742,   0.051096]
  |<r_e - r_h>| [Ang]:                  0.158391
  Hole size [Ang]:                      0.977661
    Cartesian components [Ang]:       [  0.550869,   0.573817,   0.568416]
  Electron size [Ang]:                  1.132816
    Cartesian components [Ang]:       [  0.862781,   0.516293,   0.521845]
  RMS electron-hole separation [Ang]:   1.438280
    Cartesian components [Ang]:       [  0.919554,   0.771559,   0.792316]
  Covariance(r_h, r_e) [Ang^2]:         0.097766
  Correlation coefficient:              0.088275
  Center-of-mass size [Ang]:            0.780164
    Cartesian components [Ang]:       [  0.559054,   0.386122,   0.383438]

===== TheoDORE analysis of CT numbers (Mulliken)===========================================
| State            dE(eV)      f         Om        POSi      POSf      PR        CT        
| -----------------------------------------------------------------------------------------
| D1-D2           3.364862  0.007781  0.945611  1.118501  1.002687  1.134739  0.120552
| D1-D3           3.767789  0.000002  0.915933  1.182697  1.005398  1.218326  0.187100
| D1-D4           7.138891  0.000000  0.896195  1.005572  1.269492  1.330321  0.273602
| D1-D5           7.944166  0.001854  0.871185  1.003761  1.292787  1.357200  0.294971
===========================================================================================


===== TheoDORE analysis of CT numbers (Lowdin)=============================================
| State            dE(eV)      f         Om        POSi      POSf      PR        CT        
| -----------------------------------------------------------------------------------------
| D1-D2           3.364862  0.007781  0.945611  1.096074  1.004787  1.109909  0.099942
| D1-D3           3.767789  0.000002  0.915933  1.173754  1.007434  1.208877  0.179500
| D1-D4           7.138891  0.000000  0.896195  1.007370  1.262136  1.322873  0.266972
| D1-D5           7.944166  0.001854  0.871185  1.008558  1.267491  1.330835  0.273453
===========================================================================================

 Writing fragment Omega matrix to OmFrag.txt
--- Stop Module: wfa at Wed Mar 27 10:56:50 2024 /rc=_RC_ALL_IS_WELL_ ---

>>> COPY MOLCAS.rassi.h5.bak MOLCAS.rassi.h5

.##################.
.# Happy landing! #.
.##################.

    Timing: Wall=23.49 User=20.30 System=2.85
