 Entering Gaussian System, Link 0=/usr/license/gaussian16_new/rev_c01/avx2/g16/g16
 Initial command:
 /usr/license/gaussian16_new/rev_c01/avx2/g16/l1.exe "./Gau-66824.inp" -scrdir="./"
 Entering Link 1 = /usr/license/gaussian16_new/rev_c01/avx2/g16/l1.exe PID=     66826.
  
 Copyright (c) 1988-2019, Gaussian, Inc.  All Rights Reserved.
  
 This is part of the Gaussian(R) 16 program.  It is based on
 the Gaussian(R) 09 system (copyright 2009, Gaussian, Inc.),
 the Gaussian(R) 03 system (copyright 2003, Gaussian, Inc.),
 the Gaussian(R) 98 system (copyright 1998, Gaussian, Inc.),
 the Gaussian(R) 94 system (copyright 1995, Gaussian, Inc.),
 the Gaussian 92(TM) system (copyright 1992, Gaussian, Inc.),
 the Gaussian 90(TM) system (copyright 1990, Gaussian, Inc.),
 the Gaussian 88(TM) system (copyright 1988, Gaussian, Inc.),
 the Gaussian 86(TM) system (copyright 1986, Carnegie Mellon
 University), and the Gaussian 82(TM) system (copyright 1983,
 Carnegie Mellon University). Gaussian is a federally registered
 trademark of Gaussian, Inc.
  
 This software contains proprietary and confidential information,
 including trade secrets, belonging to Gaussian, Inc.
  
 This software is provided under written license and may be
 used, copied, transmitted, or stored only in accord with that
 written license.
  
 The following legend is applicable only to US Government
 contracts under FAR:
  
                    RESTRICTED RIGHTS LEGEND
  
 Use, reproduction and disclosure by the US Government is
 subject to restrictions as set forth in subparagraphs (a)
 and (c) of the Commercial Computer Software - Restricted
 Rights clause in FAR 52.227-19.
  
 Gaussian, Inc.
 340 Quinnipiac St., Bldg. 40, Wallingford CT 06492
  
  
 ---------------------------------------------------------------
 Warning -- This program may not be used in any manner that
 competes with the business of Gaussian, Inc. or will provide
 assistance to any competitor of Gaussian, Inc.  The licensee
 of this program is prohibited from giving any competitor of
 Gaussian, Inc. access to this program.  By using this program,
 the user acknowledges that Gaussian, Inc. is engaged in the
 business of creating and licensing software in the field of
 computational chemistry and represents and warrants to the
 licensee that it is not a competitor of Gaussian, Inc. and that
 it will not use this program in any manner prohibited above.
 ---------------------------------------------------------------
  

 Cite this work as:
 Gaussian 16, Revision C.01,
 M. J. Frisch, G. W. Trucks, H. B. Schlegel, G. E. Scuseria, 
 M. A. Robb, J. R. Cheeseman, G. Scalmani, V. Barone, 
 G. A. Petersson, H. Nakatsuji, X. Li, M. Caricato, A. V. Marenich, 
 J. Bloino, B. G. Janesko, R. Gomperts, B. Mennucci, H. P. Hratchian, 
 J. V. Ortiz, A. F. Izmaylov, J. L. Sonnenberg, D. Williams-Young, 
 F. Ding, F. Lipparini, F. Egidi, J. Goings, B. Peng, A. Petrone, 
 T. Henderson, D. Ranasinghe, V. G. Zakrzewski, J. Gao, N. Rega, 
 G. Zheng, W. Liang, M. Hada, M. Ehara, K. Toyota, R. Fukuda, 
 J. Hasegawa, M. Ishida, T. Nakajima, Y. Honda, O. Kitao, H. Nakai, 
 T. Vreven, K. Throssell, J. A. Montgomery, Jr., J. E. Peralta, 
 F. Ogliaro, M. J. Bearpark, J. J. Heyd, E. N. Brothers, K. N. Kudin, 
 V. N. Staroverov, T. A. Keith, R. Kobayashi, J. Normand, 
 K. Raghavachari, A. P. Rendell, J. C. Burant, S. S. Iyengar, 
 J. Tomasi, M. Cossi, J. M. Millam, M. Klene, C. Adamo, R. Cammi, 
 J. W. Ochterski, R. L. Martin, K. Morokuma, O. Farkas, 
 J. B. Foresman, and D. J. Fox, Gaussian, Inc., Wallingford CT, 2019.
 
 ******************************************
 Gaussian 16:  ES64L-G16RevC.01  3-Jul-2019
                 6-May-2025 
 ******************************************
 %MEM=20000MB
 %NProcShared=20
 Will use up to   20 processors via shared memory.
 %Chk=GAUSSIAN.chk
 Default route: IOP(99/10=0)
 ----------------------------------------------
 #p nosym unit=AU wb97xd def2svp GFINPUT charge
 ----------------------------------------------
 1/18=10,20=1,28=-2,38=1,125=101,172=1/1;
 2/12=2,15=1,17=6,18=5,40=1/2;
 3/5=43,7=101,11=2,24=10,25=1,30=1,74=-58/1,2,3;
 4//1;
 5/5=2,38=5/2;
 6/7=2,8=2,9=2,10=2,28=1/1;
 99/5=1,9=1/99;
 Leave Link    1 at Tue May  6 19:25:37 2025, MaxMem=  2621440000 cpu:               0.8 elap:               0.0
 (Enter /usr/license/gaussian16_new/rev_c01/avx2/g16/l101.exe)
 ------------------
 SHARC-GAUSSIAN job
 ------------------
 Symbolic Z-matrix:
 Charge =  0 Multiplicity = 1
 N                    -1.51064   6.50445   20.21407 
 N                    -2.82702   5.79322   15.72357 
 C                    -1.43197   6.64325   22.76859 
 C                     0.51943   8.19015   23.58265 
 C                     1.7621    9.05167   21.43119 
 C                     0.47317   8.00445   19.32415 
 C                     0.84602   8.31651   16.7271 
 C                    -0.76929   7.26737   14.93998 
 C                    -0.89531   7.45308   12.2731 
 C                    -2.94494   6.1474    11.44317 
 C                    -4.1241    5.14421   13.63875 
 B                    -3.33478   4.95468   18.50724 
 F                    -2.85346   2.37759   18.7824 
 F                    -5.84638   5.4333    19.16134 
 H                     2.12322   9.41925   16.24311 
 H                    -5.51554   4.19271   13.66604 
 H                     3.16443   10.20419   21.47023 
 H                     1.01413   8.57688   25.29456 
 H                    -3.55795   5.93489   9.75602 
 H                    -2.53115   5.552     23.75213 
 H                     0.36729   8.53859   11.31432 
 
 ITRead=  0  0  0  0  0  0  0  0  0  0  0  0  0  0  0  0  0  0  0  0
 ITRead=  0
 MicOpt= -1 -1 -1 -1 -1 -1 -1 -1 -1 -1 -1 -1 -1 -1 -1 -1 -1 -1 -1 -1
 MicOpt= -1
 NAtoms=     21 NQM=       21 NQMF=       0 NMMI=      0 NMMIF=      0
                NMic=       0 NMicF=      0.
                    Isotopes and Nuclear Properties:
 (Nuclear quadrupole moments (NQMom) in fm**2, nuclear magnetic moments (NMagM)
  in nuclear magnetons)

  Atom         1           2           3           4           5           6           7           8           9          10
 IAtWgt=          14          14          12          12          12          12          12          12          12          12
 AtmWgt=  14.0030740  14.0030740  12.0000000  12.0000000  12.0000000  12.0000000  12.0000000  12.0000000  12.0000000  12.0000000
 NucSpn=           2           2           0           0           0           0           0           0           0           0
 AtZEff=  -0.0000000  -0.0000000  -0.0000000  -0.0000000  -0.0000000  -0.0000000  -0.0000000  -0.0000000  -0.0000000  -0.0000000
 NQMom=    2.0440000   2.0440000   0.0000000   0.0000000   0.0000000   0.0000000   0.0000000   0.0000000   0.0000000   0.0000000
 NMagM=    0.4037610   0.4037610   0.0000000   0.0000000   0.0000000   0.0000000   0.0000000   0.0000000   0.0000000   0.0000000
 AtZNuc=   7.0000000   7.0000000   6.0000000   6.0000000   6.0000000   6.0000000   6.0000000   6.0000000   6.0000000   6.0000000

  Atom        11          12          13          14          15          16          17          18          19          20
 IAtWgt=          12          11          19          19           1           1           1           1           1           1
 AtmWgt=  12.0000000  11.0093053  18.9984032  18.9984032   1.0078250   1.0078250   1.0078250   1.0078250   1.0078250   1.0078250
 NucSpn=           0           3           1           1           1           1           1           1           1           1
 AtZEff=  -0.0000000  -0.0000000  -0.0000000  -0.0000000  -0.0000000  -0.0000000  -0.0000000  -0.0000000  -0.0000000  -0.0000000
 NQMom=    0.0000000   4.0590000   0.0000000   0.0000000   0.0000000   0.0000000   0.0000000   0.0000000   0.0000000   0.0000000
 NMagM=    0.0000000   2.6886370   2.6288670   2.6288670   2.7928460   2.7928460   2.7928460   2.7928460   2.7928460   2.7928460
 AtZNuc=   6.0000000   5.0000000   9.0000000   9.0000000   1.0000000   1.0000000   1.0000000   1.0000000   1.0000000   1.0000000

  Atom        21
 IAtWgt=           1
 AtmWgt=   1.0078250
 NucSpn=           1
 AtZEff=  -0.0000000
 NQMom=    0.0000000
 NMagM=    2.7928460
 AtZNuc=   1.0000000
 Background charge distribution read from input stream:
 Point Charges:
 XYZ=   -5.8704   -1.6235   10.6968 Q=   -0.0543 A=    0.0000 R=    0.0000 C=    0.0000
 XYZ=   -6.5670   -1.9999    8.3206 Q=   -0.0430 A=    0.0000 R=    0.0000 C=    0.0000
 XYZ=   -5.8288   -1.5500   12.0486 Q=   -0.0260 A=    0.0000 R=    0.0000 C=    0.0000
 XYZ=   -4.7961   -0.7315   12.4794 Q=   -0.2480 A=    0.0000 R=    0.0000 C=    0.0000
 XYZ=   -4.1385   -0.2756   11.3409 Q=   -0.1633 A=    0.0000 R=    0.0000 C=    0.0000
 XYZ=   -4.8206   -0.8297   10.2259 Q=    0.0564 A=    0.0000 R=    0.0000 C=    0.0000
 XYZ=   -4.6233   -0.6646    8.8516 Q=   -0.1116 A=    0.0000 R=    0.0000 C=    0.0000
 XYZ=   -5.4781   -1.2198    7.9059 Q=    0.0357 A=    0.0000 R=    0.0000 C=    0.0000
 XYZ=   -5.5448   -1.1215    6.4946 Q=   -0.1672 A=    0.0000 R=    0.0000 C=    0.0000
 XYZ=   -6.6294   -1.8124    6.0555 Q=   -0.2358 A=    0.0000 R=    0.0000 C=    0.0000
 XYZ=   -7.2534   -2.3433    7.2173 Q=   -0.0234 A=    0.0000 R=    0.0000 C=    0.0000
 XYZ=   -6.8357   -2.4436    9.7936 Q=    0.4464 A=    0.0000 R=    0.0000 C=    0.0000
 XYZ=   -6.5810   -3.8073    9.9392 Q=   -0.3433 A=    0.0000 R=    0.0000 C=    0.0000
 XYZ=   -8.1648   -2.1903   10.1397 Q=   -0.3566 A=    0.0000 R=    0.0000 C=    0.0000
 XYZ=   -3.9474   -0.0810    8.5955 Q=    0.1911 A=    0.0000 R=    0.0000 C=    0.0000
 XYZ=   -7.9897   -2.8468    7.2318 Q=    0.1796 A=    0.0000 R=    0.0000 C=    0.0000
 XYZ=   -3.3965    0.3343   11.3616 Q=    0.1964 A=    0.0000 R=    0.0000 C=    0.0000
 XYZ=   -4.5343   -0.5268   13.3853 Q=    0.1698 A=    0.0000 R=    0.0000 C=    0.0000
 XYZ=   -6.9538   -1.9249    5.1627 Q=    0.1723 A=    0.0000 R=    0.0000 C=    0.0000
 XYZ=   -6.4104   -2.1275   12.5691 Q=    0.1736 A=    0.0000 R=    0.0000 C=    0.0000
 XYZ=   -4.8766   -0.5471    5.9873 Q=    0.1511 A=    0.0000 R=    0.0000 C=    0.0000
 Pt Chg Charge=              0.0000 electrons
 Pt Chg Dipole moment (Debye):
    X=              3.7033    Y=              3.6370    Z=             -1.1715  Tot=              5.3212
 Pt Chg Quadrupole moment (Debye-Ang):
   XX=            -40.1923   YY=            -12.5801   ZZ=             -5.5642
   XY=            -22.2769   XZ=             47.0882   YZ=             38.6549
 Pt Chg Traceless Quadrupole moment (Debye-Ang):
   XX=            -20.7468   YY=              6.8655   ZZ=             13.8813
   XY=            -22.2769   XZ=             47.0882   YZ=             38.6549
 Pt Chg Octapole moment (Debye-Ang**2):
  XXX=            352.9563  YYY=             56.3994  ZZZ=            156.7351  XYY=             81.0678
  XXY=            145.2390  XXZ=           -492.8322  XZZ=            461.3619  YZZ=            383.0886
  YYZ=           -134.2546  XYZ=           -248.4856
 Pt Chg Hexadecapole moment (Debye-Ang**3):
 XXXX=          -2960.8993 YYYY=           -246.8408 ZZZZ=           5313.1637 XXXY=          -1003.9480
 XXXZ=           4362.1211 YYYX=           -361.5686 YYYZ=            596.5506 ZZZX=           3642.2147
 ZZZY=           3590.2089 XXYY=           -529.1553 XXZZ=          -5088.0308 YYZZ=          -1352.4458
 XXYZ=           1715.4022 YYXZ=            901.7845 ZZXY=          -2530.3280
 Leave Link  101 at Tue May  6 19:25:37 2025, MaxMem=  2621440000 cpu:               0.8 elap:               0.1
 (Enter /usr/license/gaussian16_new/rev_c01/avx2/g16/l202.exe)
                          Input orientation:                          
 ---------------------------------------------------------------------
 Center     Atomic      Atomic             Coordinates (Angstroms)
 Number     Number       Type             X           Y           Z
 ---------------------------------------------------------------------
      1          7           0       -0.799397    3.442007   10.696823
      2          7           0       -1.495994    3.065641    8.320554
      3          6           0       -0.757766    3.515457   12.048621
      4          6           0        0.274873    4.334042   12.479403
      5          6           0        0.932461    4.789937   11.340896
      6          6           0        0.250389    4.235771   10.225902
      7          6           0        0.447696    4.400906    8.851599
      8          6           0       -0.407091    3.845728    7.905895
      9          6           0       -0.473777    3.943998    6.494644
     10          6           0       -1.558393    3.253064    6.055465
     11          6           0       -2.182378    2.722200    7.217316
     12          5           0       -1.764691    2.621903    9.793609
     13          9           0       -1.509984    1.258169    9.939218
     14          9           0       -3.093769    2.875178   10.139746
     15          1           0        1.123560    4.984452    8.595481
     16          1           0       -2.918698    2.218689    7.231759
     17          1           0        1.674544    5.399823   11.361554
     18          1           0        0.536657    4.538688   13.385304
     19          1           0       -1.882785    3.140610    5.162663
     20          1           0       -1.339428    2.937990   12.569086
     21          1           0        0.194364    4.518426    5.987278
 ---------------------------------------------------------------------
                    Distance matrix (angstroms):
                    1          2          3          4          5
     1  N    0.000000
     2  N    2.504706   0.000000
     3  C    1.354432   3.826983   0.000000
     4  C    2.264371   4.694767   1.386361   0.000000
     5  C    2.287155   4.241822   2.232049   1.391568   0.000000
     6  C    1.397812   2.837148   2.203981   2.255776   1.419695
     7  C    2.424784   2.417203   3.529605   3.632534   2.565724
     8  C    2.847134   1.402208   4.170639   4.649785   3.805938
     9  C    4.244565   2.269446   5.577720   6.044001   5.116569
    10  C    4.706801   2.273686   6.052088   6.767301   6.041698
    11  C    3.812837   1.343953   5.099047   6.027079   5.566118
    12  B    1.555686   1.561727   2.626293   3.782160   3.790659
    13  F    2.418274   2.426360   3.179742   4.370269   4.517037
    14  F    2.428121   2.428708   3.083938   4.353163   4.617314
    15  H    3.239219   3.258755   4.197798   4.028418   2.758923
    16  H    4.242006   1.981638   5.436303   6.497029   6.190941
    17  H    3.224174   4.974776   3.152622   2.084359   0.960768
    18  H    3.196198   5.652719   2.123500   0.964918   2.097473
    19  H    5.647256   3.182374   6.987317   7.721040   6.986877
    20  H    2.012718   4.253332   0.970918   2.136111   3.177993
    21  H    4.932145   3.226774   6.217104   6.495242   5.411075
                    6          7          8          9         10
     6  C    0.000000
     7  C    1.398180   0.000000
     8  C    2.442713   1.390410   0.000000
     9  C    3.812064   2.571598   1.416239   0.000000
    10  C    4.650801   3.627713   2.258504   1.358919   0.000000
    11  C    4.154617   3.522247   2.210905   2.221343   1.421644
    12  B    2.617631   2.991135   2.627601   3.781212   3.796662
    13  F    3.470910   3.859044   3.470769   4.489153   4.366404
    14  F    3.611375   4.065605   3.626334   4.614488   4.379672
    15  H    1.995300   0.928932   2.028574   2.836820   4.079492
    16  H    4.803814   4.326495   3.067554   3.081829   2.074615
    17  H    2.161698   2.966962   4.323193   5.515571   6.573814
    18  H    3.186774   4.536670   5.603104   6.989694   7.731016
    19  H    5.602339   4.541777   3.193773   2.098788   0.956541
    20  H    3.114846   4.376488   4.841342   6.217737   6.524912
    21  H    4.248407   2.877903   2.120227   1.016760   2.162856
                   11         12         13         14         15
    11  C    0.000000
    12  B    2.611859   0.000000
    13  F    3.162950   1.394937   0.000000
    14  F    3.065067   1.396570   2.272291   0.000000
    15  H    4.236313   3.919074   4.756718   4.961820   0.000000
    16  H    0.892132   2.838554   3.199595   2.986305   5.084194
    17  H    6.262605   4.690803   5.414569   5.532039   2.850838
    18  H    6.981179   4.676595   5.179387   5.145960   4.846191
    19  H    2.118118   4.661402   5.147625   5.129161   4.921596
    20  H    5.422045   2.825603   3.125235   2.997224   5.103318
    21  H    3.223092   4.682185   5.399251   5.545726   2.807723
                   16         17         18         19         20
    16  H    0.000000
    17  H    6.947855   0.000000
    18  H    7.428862   2.476268   0.000000
    19  H    2.490826   7.495658   8.684477   0.000000
    20  H    5.612357   4.074651   2.597718   7.429091   0.000000
    21  H    4.065548   5.643637   7.405968   2.625436   6.940497
                   21
    21  H    0.000000
 Symmetry turned off by external request.
 Stoichiometry    C9H7BF2N2
 Framework group  C1[X(C9H7BF2N2)]
 Deg. of freedom    57
 Full point group                 C1      NOp   1
 Rotational constants (GHZ):           1.2887992           0.6413832           0.4683174
 Leave Link  202 at Tue May  6 19:25:37 2025, MaxMem=  2621440000 cpu:               0.1 elap:               0.0
 (Enter /usr/license/gaussian16_new/rev_c01/avx2/g16/l301.exe)
 Standard basis: def2SVP (5D, 7F)
 Ernie: Thresh=  0.10000D-02 Tol=  0.10000D-05 Strict=F.
 AO basis set in the form of general basis input (Overlap normalization):
      1 0
 S   5 1.00       0.000000000000
      0.1712841585D+04 -0.5447799580D-02
      0.2576481268D+03 -0.4062717463D-01
      0.5845824585D+02 -0.1811196225D+00
      0.1619836791D+02 -0.4684397556D+00
      0.5005260081D+01 -0.4461684629D+00
 S   1 1.00       0.000000000000
      0.5873185657D+00  0.1000000000D+01
 S   1 1.00       0.000000000000
      0.1876459225D+00  0.1000000000D+01
 P   3 1.00       0.000000000000
      0.1357147023D+02 -0.5884811697D-01
      0.2925737287D+01 -0.3202462476D+00
      0.7992775075D+00 -0.7532822652D+00
 P   1 1.00       0.000000000000
      0.2195434803D+00  0.1000000000D+01
 D   1 1.00       0.000000000000
      0.1000000000D+01  0.1000000000D+01
 ****
      2 0
 S   5 1.00       0.000000000000
      0.1712841585D+04 -0.5447799580D-02
      0.2576481268D+03 -0.4062717463D-01
      0.5845824585D+02 -0.1811196225D+00
      0.1619836791D+02 -0.4684397556D+00
      0.5005260081D+01 -0.4461684629D+00
 S   1 1.00       0.000000000000
      0.5873185657D+00  0.1000000000D+01
 S   1 1.00       0.000000000000
      0.1876459225D+00  0.1000000000D+01
 P   3 1.00       0.000000000000
      0.1357147023D+02 -0.5884811697D-01
      0.2925737287D+01 -0.3202462476D+00
      0.7992775075D+00 -0.7532822652D+00
 P   1 1.00       0.000000000000
      0.2195434803D+00  0.1000000000D+01
 D   1 1.00       0.000000000000
      0.1000000000D+01  0.1000000000D+01
 ****
      3 0
 S   5 1.00       0.000000000000
      0.1238401694D+04  0.5517365048D-02
      0.1862900499D+03  0.4108882856D-01
      0.4225117635D+02  0.1822538213D+00
      0.1167655793D+02  0.4682845944D+00
      0.3593050648D+01  0.4457581734D+00
 S   1 1.00       0.000000000000
      0.4024514736D+00  0.1000000000D+01
 S   1 1.00       0.000000000000
      0.1309018267D+00  0.1000000000D+01
 P   3 1.00       0.000000000000
      0.9468097062D+01  0.5688833201D-01
      0.2010354514D+01  0.3129405934D+00
      0.5477100471D+00  0.7606501651D+00
 P   1 1.00       0.000000000000
      0.1526861379D+00  0.1000000000D+01
 D   1 1.00       0.000000000000
      0.8000000000D+00  0.1000000000D+01
 ****
      4 0
 S   5 1.00       0.000000000000
      0.1238401694D+04  0.5517365048D-02
      0.1862900499D+03  0.4108882856D-01
      0.4225117635D+02  0.1822538213D+00
      0.1167655793D+02  0.4682845944D+00
      0.3593050648D+01  0.4457581734D+00
 S   1 1.00       0.000000000000
      0.4024514736D+00  0.1000000000D+01
 S   1 1.00       0.000000000000
      0.1309018267D+00  0.1000000000D+01
 P   3 1.00       0.000000000000
      0.9468097062D+01  0.5688833201D-01
      0.2010354514D+01  0.3129405934D+00
      0.5477100471D+00  0.7606501651D+00
 P   1 1.00       0.000000000000
      0.1526861379D+00  0.1000000000D+01
 D   1 1.00       0.000000000000
      0.8000000000D+00  0.1000000000D+01
 ****
      5 0
 S   5 1.00       0.000000000000
      0.1238401694D+04  0.5517365048D-02
      0.1862900499D+03  0.4108882856D-01
      0.4225117635D+02  0.1822538213D+00
      0.1167655793D+02  0.4682845944D+00
      0.3593050648D+01  0.4457581734D+00
 S   1 1.00       0.000000000000
      0.4024514736D+00  0.1000000000D+01
 S   1 1.00       0.000000000000
      0.1309018267D+00  0.1000000000D+01
 P   3 1.00       0.000000000000
      0.9468097062D+01  0.5688833201D-01
      0.2010354514D+01  0.3129405934D+00
      0.5477100471D+00  0.7606501651D+00
 P   1 1.00       0.000000000000
      0.1526861379D+00  0.1000000000D+01
 D   1 1.00       0.000000000000
      0.8000000000D+00  0.1000000000D+01
 ****
      6 0
 S   5 1.00       0.000000000000
      0.1238401694D+04  0.5517365048D-02
      0.1862900499D+03  0.4108882856D-01
      0.4225117635D+02  0.1822538213D+00
      0.1167655793D+02  0.4682845944D+00
      0.3593050648D+01  0.4457581734D+00
 S   1 1.00       0.000000000000
      0.4024514736D+00  0.1000000000D+01
 S   1 1.00       0.000000000000
      0.1309018267D+00  0.1000000000D+01
 P   3 1.00       0.000000000000
      0.9468097062D+01  0.5688833201D-01
      0.2010354514D+01  0.3129405934D+00
      0.5477100471D+00  0.7606501651D+00
 P   1 1.00       0.000000000000
      0.1526861379D+00  0.1000000000D+01
 D   1 1.00       0.000000000000
      0.8000000000D+00  0.1000000000D+01
 ****
      7 0
 S   5 1.00       0.000000000000
      0.1238401694D+04  0.5517365048D-02
      0.1862900499D+03  0.4108882856D-01
      0.4225117635D+02  0.1822538213D+00
      0.1167655793D+02  0.4682845944D+00
      0.3593050648D+01  0.4457581734D+00
 S   1 1.00       0.000000000000
      0.4024514736D+00  0.1000000000D+01
 S   1 1.00       0.000000000000
      0.1309018267D+00  0.1000000000D+01
 P   3 1.00       0.000000000000
      0.9468097062D+01  0.5688833201D-01
      0.2010354514D+01  0.3129405934D+00
      0.5477100471D+00  0.7606501651D+00
 P   1 1.00       0.000000000000
      0.1526861379D+00  0.1000000000D+01
 D   1 1.00       0.000000000000
      0.8000000000D+00  0.1000000000D+01
 ****
      8 0
 S   5 1.00       0.000000000000
      0.1238401694D+04  0.5517365048D-02
      0.1862900499D+03  0.4108882856D-01
      0.4225117635D+02  0.1822538213D+00
      0.1167655793D+02  0.4682845944D+00
      0.3593050648D+01  0.4457581734D+00
 S   1 1.00       0.000000000000
      0.4024514736D+00  0.1000000000D+01
 S   1 1.00       0.000000000000
      0.1309018267D+00  0.1000000000D+01
 P   3 1.00       0.000000000000
      0.9468097062D+01  0.5688833201D-01
      0.2010354514D+01  0.3129405934D+00
      0.5477100471D+00  0.7606501651D+00
 P   1 1.00       0.000000000000
      0.1526861379D+00  0.1000000000D+01
 D   1 1.00       0.000000000000
      0.8000000000D+00  0.1000000000D+01
 ****
      9 0
 S   5 1.00       0.000000000000
      0.1238401694D+04  0.5517365048D-02
      0.1862900499D+03  0.4108882856D-01
      0.4225117635D+02  0.1822538213D+00
      0.1167655793D+02  0.4682845944D+00
      0.3593050648D+01  0.4457581734D+00
 S   1 1.00       0.000000000000
      0.4024514736D+00  0.1000000000D+01
 S   1 1.00       0.000000000000
      0.1309018267D+00  0.1000000000D+01
 P   3 1.00       0.000000000000
      0.9468097062D+01  0.5688833201D-01
      0.2010354514D+01  0.3129405934D+00
      0.5477100471D+00  0.7606501651D+00
 P   1 1.00       0.000000000000
      0.1526861379D+00  0.1000000000D+01
 D   1 1.00       0.000000000000
      0.8000000000D+00  0.1000000000D+01
 ****
     10 0
 S   5 1.00       0.000000000000
      0.1238401694D+04  0.5517365048D-02
      0.1862900499D+03  0.4108882856D-01
      0.4225117635D+02  0.1822538213D+00
      0.1167655793D+02  0.4682845944D+00
      0.3593050648D+01  0.4457581734D+00
 S   1 1.00       0.000000000000
      0.4024514736D+00  0.1000000000D+01
 S   1 1.00       0.000000000000
      0.1309018267D+00  0.1000000000D+01
 P   3 1.00       0.000000000000
      0.9468097062D+01  0.5688833201D-01
      0.2010354514D+01  0.3129405934D+00
      0.5477100471D+00  0.7606501651D+00
 P   1 1.00       0.000000000000
      0.1526861379D+00  0.1000000000D+01
 D   1 1.00       0.000000000000
      0.8000000000D+00  0.1000000000D+01
 ****
     11 0
 S   5 1.00       0.000000000000
      0.1238401694D+04  0.5517365048D-02
      0.1862900499D+03  0.4108882856D-01
      0.4225117635D+02  0.1822538213D+00
      0.1167655793D+02  0.4682845944D+00
      0.3593050648D+01  0.4457581734D+00
 S   1 1.00       0.000000000000
      0.4024514736D+00  0.1000000000D+01
 S   1 1.00       0.000000000000
      0.1309018267D+00  0.1000000000D+01
 P   3 1.00       0.000000000000
      0.9468097062D+01  0.5688833201D-01
      0.2010354514D+01  0.3129405934D+00
      0.5477100471D+00  0.7606501651D+00
 P   1 1.00       0.000000000000
      0.1526861379D+00  0.1000000000D+01
 D   1 1.00       0.000000000000
      0.8000000000D+00  0.1000000000D+01
 ****
     12 0
 S   5 1.00       0.000000000000
      0.8393183009D+03 -0.5628883598D-02
      0.1262646484D+03 -0.4183279461D-01
      0.2862060076D+02 -0.1841748813D+00
      0.7879372271D+01 -0.4683965503D+00
      0.2408885717D+01 -0.4445793088D+00
 S   1 1.00       0.000000000000
      0.2510510904D+00  0.1000000000D+01
 S   1 1.00       0.000000000000
      0.8364886607D-01  0.1000000000D+01
 P   3 1.00       0.000000000000
      0.6033222362D+01 -0.5403250032D-01
      0.1249915787D+01 -0.3019403439D+00
      0.3387167635D+00 -0.7717079166D+00
 P   1 1.00       0.000000000000
      0.9641563235D-01  0.1000000000D+01
 D   1 1.00       0.000000000000
      0.5000000000D+00  0.1000000000D+01
 ****
     13 0
 S   5 1.00       0.000000000000
      0.2894832599D+04 -0.5349321176D-02
      0.4354193912D+03 -0.3996773437D-01
      0.9884332887D+02 -0.1794126179D+00
      0.2748519800D+02 -0.4683246869D+00
      0.8540549817D+01 -0.4472416053D+00
 S   1 1.00       0.000000000000
      0.1065457804D+01  0.1000000000D+01
 S   1 1.00       0.000000000000
      0.3324734675D+00  0.1000000000D+01
 P   3 1.00       0.000000000000
      0.2269663392D+02 -0.6478214824D-01
      0.4987233926D+01 -0.3403578536D+00
      0.1349161395D+01 -0.7348581537D+00
 P   1 1.00       0.000000000000
      0.3482988198D+00  0.1000000000D+01
 D   1 1.00       0.000000000000
      0.1400000000D+01  0.1000000000D+01
 ****
     14 0
 S   5 1.00       0.000000000000
      0.2894832599D+04 -0.5349321176D-02
      0.4354193912D+03 -0.3996773437D-01
      0.9884332887D+02 -0.1794126179D+00
      0.2748519800D+02 -0.4683246869D+00
      0.8540549817D+01 -0.4472416053D+00
 S   1 1.00       0.000000000000
      0.1065457804D+01  0.1000000000D+01
 S   1 1.00       0.000000000000
      0.3324734675D+00  0.1000000000D+01
 P   3 1.00       0.000000000000
      0.2269663392D+02 -0.6478214824D-01
      0.4987233926D+01 -0.3403578536D+00
      0.1349161395D+01 -0.7348581537D+00
 P   1 1.00       0.000000000000
      0.3482988198D+00  0.1000000000D+01
 D   1 1.00       0.000000000000
      0.1400000000D+01  0.1000000000D+01
 ****
     15 0
 S   3 1.00       0.000000000000
      0.1301070100D+02  0.3348548481D-01
      0.1962257200D+01  0.2347218709D+00
      0.4445379600D+00  0.8137702853D+00
 S   1 1.00       0.000000000000
      0.1219496200D+00  0.1000000000D+01
 P   1 1.00       0.000000000000
      0.8000000000D+00  0.1000000000D+01
 ****
     16 0
 S   3 1.00       0.000000000000
      0.1301070100D+02  0.3348548481D-01
      0.1962257200D+01  0.2347218709D+00
      0.4445379600D+00  0.8137702853D+00
 S   1 1.00       0.000000000000
      0.1219496200D+00  0.1000000000D+01
 P   1 1.00       0.000000000000
      0.8000000000D+00  0.1000000000D+01
 ****
     17 0
 S   3 1.00       0.000000000000
      0.1301070100D+02  0.3348548481D-01
      0.1962257200D+01  0.2347218709D+00
      0.4445379600D+00  0.8137702853D+00
 S   1 1.00       0.000000000000
      0.1219496200D+00  0.1000000000D+01
 P   1 1.00       0.000000000000
      0.8000000000D+00  0.1000000000D+01
 ****
     18 0
 S   3 1.00       0.000000000000
      0.1301070100D+02  0.3348548481D-01
      0.1962257200D+01  0.2347218709D+00
      0.4445379600D+00  0.8137702853D+00
 S   1 1.00       0.000000000000
      0.1219496200D+00  0.1000000000D+01
 P   1 1.00       0.000000000000
      0.8000000000D+00  0.1000000000D+01
 ****
     19 0
 S   3 1.00       0.000000000000
      0.1301070100D+02  0.3348548481D-01
      0.1962257200D+01  0.2347218709D+00
      0.4445379600D+00  0.8137702853D+00
 S   1 1.00       0.000000000000
      0.1219496200D+00  0.1000000000D+01
 P   1 1.00       0.000000000000
      0.8000000000D+00  0.1000000000D+01
 ****
     20 0
 S   3 1.00       0.000000000000
      0.1301070100D+02  0.3348548481D-01
      0.1962257200D+01  0.2347218709D+00
      0.4445379600D+00  0.8137702853D+00
 S   1 1.00       0.000000000000
      0.1219496200D+00  0.1000000000D+01
 P   1 1.00       0.000000000000
      0.8000000000D+00  0.1000000000D+01
 ****
     21 0
 S   3 1.00       0.000000000000
      0.1301070100D+02  0.3348548481D-01
      0.1962257200D+01  0.2347218709D+00
      0.4445379600D+00  0.8137702853D+00
 S   1 1.00       0.000000000000
      0.1219496200D+00  0.1000000000D+01
 P   1 1.00       0.000000000000
      0.8000000000D+00  0.1000000000D+01
 ****

   231 basis functions,   399 primitive gaussians,   245 cartesian basis functions
    49 alpha electrons       49 beta electrons
       nuclear repulsion energy       864.2580296774 Hartrees.
 IExCor= 4639 DFT=T Ex+Corr=wB97XD ExCW=0 ScaHFX=  1.000000
 ScaDFX=  1.000000  1.000000  1.000000  1.000000 ScalE2=  1.000000  1.000000
 IRadAn=      5 IRanWt=     -1 IRanGd=            0 ICorTp=0 IEmpDi=121
 HFx  wShort=  0.000000 wLong=  0.200000 cFull=  0.222036 cShort=  0.000000 cLong=  0.777964
 DFx  wShort=  0.000000 wLong=  0.200000 cFull=  0.000000 cShort=  0.000000 cLong=  1.000000
 NAtoms=   21 NActive=   21 NUniq=   21 SFac= 1.00D+00 NAtFMM=   60 NAOKFM=F Big=F
 Integral buffers will be    131072 words long.
 Raffenetti 2 integral format.
 Two-electron integral symmetry is turned off.
 Background charge distribution read from rwf.
 PtFMM for NChg=        42 BoxLen=    40.00 Levels= 1 LMax=20 SMax=    18.6 ICnFMM=     1:
 Self energy of the charges =        -0.1958933624 a.u.
 MM   energy of the charges =         0.0000000000 a.u.
 Nuclei-charges interaction =         1.2722095526 a.u.
 Nuclear repulsion after external point charges =      865.3343458676 Hartrees.
 R6Disp:  Grimme-D2 Dispersion energy=       -0.0135649705 Hartrees.
 Nuclear repulsion after empirical dispersion term =      865.3207808970 Hartrees.
 Leave Link  301 at Tue May  6 19:25:37 2025, MaxMem=  2621440000 cpu:               0.6 elap:               0.0
 (Enter /usr/license/gaussian16_new/rev_c01/avx2/g16/l302.exe)
 NPDir=0 NMtPBC=     1 NCelOv=     1 NCel=       1 NClECP=     1 NCelD=      1
         NCelK=      1 NCelE2=     1 NClLst=     1 CellRange=     0.0.
 One-electron integrals computed using PRISM.
   1 Symmetry operations used in ECPInt.
 ECPInt:  NShTT=    5565 NPrTT=   20909 LenC2=    5389 LenP2D=   15019.
 LDataN:  DoStor=T MaxTD1= 4 Len=   56
 NBasis=   231 RedAO= T EigKep=  6.04D-04  NBF=   231
 NBsUse=   231 1.00D-06 EigRej= -1.00D+00 NBFU=   231
 Precomputing XC quadrature grid using
 IXCGrd= 4 IRadAn=           5 IRanWt=          -1 IRanGd=           0 AccXCQ= 0.00D+00.
 Generated NRdTot=       0 NPtTot=           0 NUsed=           0 NTot=          32
 NSgBfM=   245   245   245   245   245 MxSgAt=    21 MxSgA2=    21.
 Leave Link  302 at Tue May  6 19:25:37 2025, MaxMem=  2621440000 cpu:               2.9 elap:               0.2
 (Enter /usr/license/gaussian16_new/rev_c01/avx2/g16/l303.exe)
 DipDrv:  MaxL=1.
 Leave Link  303 at Tue May  6 19:25:37 2025, MaxMem=  2621440000 cpu:               0.3 elap:               0.0
 (Enter /usr/license/gaussian16_new/rev_c01/avx2/g16/l401.exe)
 ExpMin= 8.36D-02 ExpMax= 2.89D+03 ExpMxC= 4.35D+02 IAcc=3 IRadAn=         5 AccDes= 0.00D+00
 Harris functional with IExCor= 4639 and IRadAn=       5 diagonalized for initial guess.
 HarFok:  IExCor= 4639 AccDes= 0.00D+00 IRadAn=         5 IDoV= 1 UseB2=F ITyADJ=14
 ICtDFT=  3500011 ScaDFX=  1.000000  1.000000  1.000000  1.000000
 FoFCou: FMM=F IPFlag=           0 FMFlag=      100000 FMFlg1=           0
         NFxFlg=           0 DoJE=T BraDBF=F KetDBF=T FulRan=T
         wScrn=  0.000000 ICntrl=       500 IOpCl=  0 I1Cent=   200000004 NGrid=           0
         NMat0=    1 NMatS0=      1 NMatT0=    0 NMatD0=    1 NMtDS0=    0 NMtDT0=    0
 Symmetry not used in FoFCou.
 Harris En= -653.386095565987    
 JPrj=0 DoOrth=F DoCkMO=F.
 Leave Link  401 at Tue May  6 19:25:38 2025, MaxMem=  2621440000 cpu:               6.8 elap:               0.4
 (Enter /usr/license/gaussian16_new/rev_c01/avx2/g16/l502.exe)
 Two-electron integral symmetry not used.
 Closed shell SCF:
 Using DIIS extrapolation, IDIIS=  1040.
 NGot=  2621440000 LenX=  2621312525 LenY=  2621252059
 Requested convergence on RMS density matrix=1.00D-08 within 128 cycles.
 Requested convergence on MAX density matrix=1.00D-06.
 Requested convergence on             energy=1.00D-06.
 No special actions if energy rises.
 Fock matrices will be formed incrementally for  20 cycles.
 Integral accuracy reduced to 1.0D-05 until final iterations.

 Cycle   1  Pass 0  IDiag  1:
 FoFJK:  IHMeth= 1 ICntrl=       0 DoSepK=T KAlg= 0 I1Cent=           0 FoldK=F
 IRaf=         1 NMat=       1 IRICut=       1 DoRegI=T DoRafI=F ISym2E= 0 IDoP0=0 IntGTp=1.
 FoFCou: FMM=F IPFlag=           0 FMFlag=      100000 FMFlg1=           0
         NFxFlg=           0 DoJE=T BraDBF=F KetDBF=F FulRan=T
         wScrn=  0.000000 ICntrl=       500 IOpCl=  0 I1Cent=           0 NGrid=           0
         NMat0=    1 NMatS0=      1 NMatT0=    0 NMatD0=    1 NMtDS0=    0 NMtDT0=    0
 Symmetry not used in FoFCou.
 E= -680.536006183007    
 DIIS: error= 5.27D-02 at cycle   1 NSaved=   1.
 NSaved= 1 IEnMin= 1 EnMin= -680.536006183007     IErMin= 1 ErrMin= 5.27D-02
 ErrMax= 5.27D-02  0.00D+00 EMaxC= 1.00D-01 BMatC= 4.23D-01 BMatP= 4.23D-01
 IDIUse=3 WtCom= 4.73D-01 WtEn= 5.27D-01
 Coeff-Com:  0.100D+01
 Coeff-En:   0.100D+01
 Coeff:      0.100D+01
 Gap=     0.224 Goal=   None    Shift=    0.000
 GapD=    0.224 DampG=1.000 DampE=0.500 DampFc=0.5000 IDamp=-1.
 Damping current iteration by 5.00D-01
 RMSDP=4.20D-03 MaxDP=1.01D-01              OVMax= 1.77D-01

 Cycle   2  Pass 0  IDiag  1:
 RMSU=  2.07D-03    CP:  9.85D-01
 E= -680.629699749605     Delta-E=       -0.093693566598 Rises=F Damp=T
 DIIS: error= 1.61D-02 at cycle   2 NSaved=   2.
 NSaved= 2 IEnMin= 2 EnMin= -680.629699749605     IErMin= 2 ErrMin= 1.61D-02
 ErrMax= 1.61D-02  0.00D+00 EMaxC= 1.00D-01 BMatC= 5.61D-02 BMatP= 4.23D-01
 IDIUse=3 WtCom= 8.39D-01 WtEn= 1.61D-01
 Coeff-Com: -0.116D+00 0.112D+01
 Coeff-En:   0.347D-01 0.965D+00
 Coeff:     -0.914D-01 0.109D+01
 Gap=     0.240 Goal=   None    Shift=    0.000
 RMSDP=1.63D-03 MaxDP=4.60D-02 DE=-9.37D-02 OVMax= 1.38D-01

 Cycle   3  Pass 0  IDiag  1:
 RMSU=  1.55D-03    CP:  9.71D-01  1.18D+00
 E= -680.729374522055     Delta-E=       -0.099674772450 Rises=F Damp=F
 DIIS: error= 7.55D-03 at cycle   3 NSaved=   3.
 NSaved= 3 IEnMin= 3 EnMin= -680.729374522055     IErMin= 3 ErrMin= 7.55D-03
 ErrMax= 7.55D-03  0.00D+00 EMaxC= 1.00D-01 BMatC= 1.37D-02 BMatP= 5.61D-02
 IDIUse=3 WtCom= 9.24D-01 WtEn= 7.55D-02
 Coeff-Com: -0.151D+00 0.363D+00 0.788D+00
 Coeff-En:   0.000D+00 0.000D+00 0.100D+01
 Coeff:     -0.140D+00 0.336D+00 0.804D+00
 Gap=     0.232 Goal=   None    Shift=    0.000
 RMSDP=6.38D-04 MaxDP=2.16D-02 DE=-9.97D-02 OVMax= 3.95D-02

 Cycle   4  Pass 0  IDiag  1:
 RMSU=  3.48D-04    CP:  9.69D-01  1.40D+00  8.19D-01
 E= -680.739167656885     Delta-E=       -0.009793134830 Rises=F Damp=F
 DIIS: error= 3.49D-03 at cycle   4 NSaved=   4.
 NSaved= 4 IEnMin= 4 EnMin= -680.739167656885     IErMin= 4 ErrMin= 3.49D-03
 ErrMax= 3.49D-03  0.00D+00 EMaxC= 1.00D-01 BMatC= 3.73D-03 BMatP= 1.37D-02
 IDIUse=3 WtCom= 9.65D-01 WtEn= 3.49D-02
 Coeff-Com: -0.711D-01 0.133D+00 0.459D+00 0.480D+00
 Coeff-En:   0.000D+00 0.000D+00 0.156D+00 0.844D+00
 Coeff:     -0.686D-01 0.128D+00 0.448D+00 0.492D+00
 Gap=     0.234 Goal=   None    Shift=    0.000
 RMSDP=2.16D-04 MaxDP=5.94D-03 DE=-9.79D-03 OVMax= 1.14D-02

 Cycle   5  Pass 0  IDiag  1:
 RMSU=  8.89D-05    CP:  9.68D-01  1.38D+00  9.04D-01  6.00D-01
 E= -680.742070025811     Delta-E=       -0.002902368926 Rises=F Damp=F
 DIIS: error= 3.20D-04 at cycle   5 NSaved=   5.
 NSaved= 5 IEnMin= 5 EnMin= -680.742070025811     IErMin= 5 ErrMin= 3.20D-04
 ErrMax= 3.20D-04  0.00D+00 EMaxC= 1.00D-01 BMatC= 2.20D-05 BMatP= 3.73D-03
 IDIUse=3 WtCom= 9.97D-01 WtEn= 3.20D-03
 Coeff-Com:  0.152D-01-0.320D-01-0.507D-01-0.828D-02 0.108D+01
 Coeff-En:   0.000D+00 0.000D+00 0.000D+00 0.000D+00 0.100D+01
 Coeff:      0.152D-01-0.319D-01-0.505D-01-0.825D-02 0.108D+01
 Gap=     0.235 Goal=   None    Shift=    0.000
 RMSDP=4.37D-05 MaxDP=1.10D-03 DE=-2.90D-03 OVMax= 3.20D-03

 Cycle   6  Pass 0  IDiag  1:
 RMSU=  2.58D-05    CP:  9.68D-01  1.38D+00  9.18D-01  6.55D-01  1.18D+00
 E= -680.742105260323     Delta-E=       -0.000035234511 Rises=F Damp=F
 DIIS: error= 1.16D-04 at cycle   6 NSaved=   6.
 NSaved= 6 IEnMin= 6 EnMin= -680.742105260323     IErMin= 6 ErrMin= 1.16D-04
 ErrMax= 1.16D-04  0.00D+00 EMaxC= 1.00D-01 BMatC= 2.71D-06 BMatP= 2.20D-05
 IDIUse=3 WtCom= 9.99D-01 WtEn= 1.16D-03
 Coeff-Com:  0.110D-01-0.217D-01-0.510D-01-0.439D-01 0.343D+00 0.763D+00
 Coeff-En:   0.000D+00 0.000D+00 0.000D+00 0.000D+00 0.000D+00 0.100D+01
 Coeff:      0.110D-01-0.216D-01-0.509D-01-0.438D-01 0.342D+00 0.763D+00
 Gap=     0.235 Goal=   None    Shift=    0.000
 RMSDP=1.29D-05 MaxDP=3.03D-04 DE=-3.52D-05 OVMax= 1.51D-03

 Cycle   7  Pass 0  IDiag  1:
 RMSU=  8.86D-06    CP:  9.68D-01  1.38D+00  9.22D-01  6.59D-01  1.26D+00
                    CP:  1.08D+00
 E= -680.742110062053     Delta-E=       -0.000004801730 Rises=F Damp=F
 DIIS: error= 3.07D-05 at cycle   7 NSaved=   7.
 NSaved= 7 IEnMin= 7 EnMin= -680.742110062053     IErMin= 7 ErrMin= 3.07D-05
 ErrMax= 3.07D-05  0.00D+00 EMaxC= 1.00D-01 BMatC= 4.53D-07 BMatP= 2.71D-06
 IDIUse=1 WtCom= 1.00D+00 WtEn= 0.00D+00
 Coeff-Com:  0.218D-02-0.401D-02-0.117D-01-0.164D-01-0.112D-01 0.276D+00
 Coeff-Com:  0.765D+00
 Coeff:      0.218D-02-0.401D-02-0.117D-01-0.164D-01-0.112D-01 0.276D+00
 Coeff:      0.765D+00
 Gap=     0.235 Goal=   None    Shift=    0.000
 RMSDP=5.57D-06 MaxDP=1.17D-04 DE=-4.80D-06 OVMax= 5.40D-04

 Initial convergence to 1.0D-05 achieved.  Increase integral accuracy.
 Cycle   8  Pass 1  IDiag  1:
 E= -680.742116889232     Delta-E=       -0.000006827179 Rises=F Damp=F
 DIIS: error= 1.34D-04 at cycle   1 NSaved=   1.
 NSaved= 1 IEnMin= 1 EnMin= -680.742116889232     IErMin= 1 ErrMin= 1.34D-04
 ErrMax= 1.34D-04  0.00D+00 EMaxC= 1.00D-01 BMatC= 7.79D-07 BMatP= 7.79D-07
 IDIUse=3 WtCom= 9.99D-01 WtEn= 1.34D-03
 Coeff-Com:  0.100D+01
 Coeff-En:   0.100D+01
 Coeff:      0.100D+01
 Gap=     0.235 Goal=   None    Shift=    0.000
 RMSDP=5.57D-06 MaxDP=1.17D-04 DE=-6.83D-06 OVMax= 3.54D-04

 Cycle   9  Pass 1  IDiag  1:
 RMSU=  7.00D-05    CP:  1.00D+00
 E= -680.742117817419     Delta-E=       -0.000000928187 Rises=F Damp=F
 DIIS: error= 1.15D-05 at cycle   2 NSaved=   2.
 NSaved= 2 IEnMin= 2 EnMin= -680.742117817419     IErMin= 2 ErrMin= 1.15D-05
 ErrMax= 1.15D-05  0.00D+00 EMaxC= 1.00D-01 BMatC= 4.75D-08 BMatP= 7.79D-07
 IDIUse=1 WtCom= 1.00D+00 WtEn= 0.00D+00
 Coeff-Com:  0.240D-01 0.976D+00
 Coeff:      0.240D-01 0.976D+00
 Gap=     0.235 Goal=   None    Shift=    0.000
 RMSDP=5.45D-06 MaxDP=1.19D-04 DE=-9.28D-07 OVMax= 1.63D-04

 Cycle  10  Pass 1  IDiag  1:
 RMSU=  2.55D-06    CP:  1.00D+00  1.07D+00
 E= -680.742117844346     Delta-E=       -0.000000026928 Rises=F Damp=F
 DIIS: error= 2.40D-05 at cycle   3 NSaved=   3.
 NSaved= 3 IEnMin= 3 EnMin= -680.742117844346     IErMin= 2 ErrMin= 1.15D-05
 ErrMax= 2.40D-05  0.00D+00 EMaxC= 1.00D-01 BMatC= 5.80D-08 BMatP= 4.75D-08
 IDIUse=1 WtCom= 1.00D+00 WtEn= 0.00D+00
 Coeff-Com: -0.460D-01 0.547D+00 0.499D+00
 Coeff:     -0.460D-01 0.547D+00 0.499D+00
 Gap=     0.235 Goal=   None    Shift=    0.000
 RMSDP=1.23D-06 MaxDP=2.82D-05 DE=-2.69D-08 OVMax= 9.48D-05

 Cycle  11  Pass 1  IDiag  1:
 RMSU=  7.99D-07    CP:  1.00D+00  1.08D+00  7.00D-01
 E= -680.742117909793     Delta-E=       -0.000000065447 Rises=F Damp=F
 DIIS: error= 3.58D-06 at cycle   4 NSaved=   4.
 NSaved= 4 IEnMin= 4 EnMin= -680.742117909793     IErMin= 4 ErrMin= 3.58D-06
 ErrMax= 3.58D-06  0.00D+00 EMaxC= 1.00D-01 BMatC= 8.26D-10 BMatP= 4.75D-08
 IDIUse=1 WtCom= 1.00D+00 WtEn= 0.00D+00
 Coeff-Com:  0.309D-02-0.120D+00-0.455D-01 0.116D+01
 Coeff:      0.309D-02-0.120D+00-0.455D-01 0.116D+01
 Gap=     0.235 Goal=   None    Shift=    0.000
 RMSDP=4.69D-07 MaxDP=7.42D-06 DE=-6.54D-08 OVMax= 7.32D-05

 Cycle  12  Pass 1  IDiag  1:
 RMSU=  2.53D-07    CP:  1.00D+00  1.08D+00  7.98D-01  1.37D+00
 E= -680.742117915093     Delta-E=       -0.000000005299 Rises=F Damp=F
 DIIS: error= 1.49D-06 at cycle   5 NSaved=   5.
 NSaved= 5 IEnMin= 5 EnMin= -680.742117915093     IErMin= 5 ErrMin= 1.49D-06
 ErrMax= 1.49D-06  0.00D+00 EMaxC= 1.00D-01 BMatC= 7.55D-10 BMatP= 8.26D-10
 IDIUse=1 WtCom= 1.00D+00 WtEn= 0.00D+00
 Coeff-Com:  0.117D-01-0.193D+00-0.136D+00 0.684D+00 0.633D+00
 Coeff:      0.117D-01-0.193D+00-0.136D+00 0.684D+00 0.633D+00
 Gap=     0.235 Goal=   None    Shift=    0.000
 RMSDP=2.23D-07 MaxDP=4.29D-06 DE=-5.30D-09 OVMax= 2.34D-05

 Cycle  13  Pass 1  IDiag  1:
 RMSU=  1.44D-07    CP:  1.00D+00  1.08D+00  8.35D-01  1.55D+00  1.10D+00
 E= -680.742117916371     Delta-E=       -0.000000001278 Rises=F Damp=F
 DIIS: error= 4.26D-07 at cycle   6 NSaved=   6.
 NSaved= 6 IEnMin= 6 EnMin= -680.742117916371     IErMin= 6 ErrMin= 4.26D-07
 ErrMax= 4.26D-07  0.00D+00 EMaxC= 1.00D-01 BMatC= 2.27D-11 BMatP= 7.55D-10
 IDIUse=1 WtCom= 1.00D+00 WtEn= 0.00D+00
 Coeff-Com:  0.292D-02-0.340D-01-0.294D-01 0.596D-02 0.124D+00 0.930D+00
 Coeff:      0.292D-02-0.340D-01-0.294D-01 0.596D-02 0.124D+00 0.930D+00
 Gap=     0.235 Goal=   None    Shift=    0.000
 RMSDP=7.82D-08 MaxDP=1.30D-06 DE=-1.28D-09 OVMax= 1.09D-05

 Cycle  14  Pass 1  IDiag  1:
 RMSU=  2.76D-08    CP:  1.00D+00  1.08D+00  8.43D-01  1.60D+00  1.26D+00
                    CP:  1.22D+00
 E= -680.742117916476     Delta-E=       -0.000000000105 Rises=F Damp=F
 DIIS: error= 1.03D-07 at cycle   7 NSaved=   7.
 NSaved= 7 IEnMin= 7 EnMin= -680.742117916476     IErMin= 7 ErrMin= 1.03D-07
 ErrMax= 1.03D-07  0.00D+00 EMaxC= 1.00D-01 BMatC= 4.52D-12 BMatP= 2.27D-11
 IDIUse=1 WtCom= 1.00D+00 WtEn= 0.00D+00
 Coeff-Com: -0.319D-03 0.897D-02 0.558D-02-0.584D-01-0.360D-01 0.291D+00
 Coeff-Com:  0.789D+00
 Coeff:     -0.319D-03 0.897D-02 0.558D-02-0.584D-01-0.360D-01 0.291D+00
 Coeff:      0.789D+00
 Gap=     0.235 Goal=   None    Shift=    0.000
 RMSDP=1.82D-08 MaxDP=4.80D-07 DE=-1.05D-10 OVMax= 1.53D-06

 Cycle  15  Pass 1  IDiag  1:
 RMSU=  1.10D-08    CP:  1.00D+00  1.08D+00  8.44D-01  1.61D+00  1.30D+00
                    CP:  1.29D+00  1.02D+00
 E= -680.742117916480     Delta-E=       -0.000000000005 Rises=F Damp=F
 DIIS: error= 3.72D-08 at cycle   8 NSaved=   8.
 NSaved= 8 IEnMin= 8 EnMin= -680.742117916480     IErMin= 8 ErrMin= 3.72D-08
 ErrMax= 3.72D-08  0.00D+00 EMaxC= 1.00D-01 BMatC= 4.83D-13 BMatP= 4.52D-12
 IDIUse=1 WtCom= 1.00D+00 WtEn= 0.00D+00
 Coeff-Com: -0.414D-03 0.639D-02 0.498D-02-0.209D-01-0.299D-01-0.218D-02
 Coeff-Com:  0.240D+00 0.802D+00
 Coeff:     -0.414D-03 0.639D-02 0.498D-02-0.209D-01-0.299D-01-0.218D-02
 Coeff:      0.240D+00 0.802D+00
 Gap=     0.235 Goal=   None    Shift=    0.000
 RMSDP=6.95D-09 MaxDP=1.31D-07 DE=-4.55D-12 OVMax= 6.95D-07

 SCF Done:  E(RwB97XD) =  -680.742117916     A.U. after   15 cycles
            NFock= 15  Conv=0.69D-08     -V/T= 2.0072
 KE= 6.759041713180D+02 PE=-3.321995398181D+03 EE= 1.100028328050D+03
 Leave Link  502 at Tue May  6 19:25:48 2025, MaxMem=  2621440000 cpu:             202.3 elap:              10.2
 (Enter /usr/license/gaussian16_new/rev_c01/avx2/g16/l601.exe)
 Copying SCF densities to generalized density rwf, IOpCl= 0 IROHF=0.

 **********************************************************************

            Population analysis using the SCF Density.

 **********************************************************************

 Alpha  occ. eigenvalues --  -24.76399 -24.76295 -14.50288 -14.49588 -10.36479
 Alpha  occ. eigenvalues --  -10.36044 -10.36022 -10.35642 -10.35408 -10.33059
 Alpha  occ. eigenvalues --  -10.32500 -10.31244 -10.30708  -6.94913  -1.25104
 Alpha  occ. eigenvalues --   -1.21565  -1.10832  -1.09053  -0.94079  -0.91430
 Alpha  occ. eigenvalues --   -0.90057  -0.85325  -0.80365  -0.73416  -0.71626
 Alpha  occ. eigenvalues --   -0.71236  -0.70117  -0.67082  -0.65394  -0.60822
 Alpha  occ. eigenvalues --   -0.57904  -0.57645  -0.56533  -0.55618  -0.54956
 Alpha  occ. eigenvalues --   -0.53398  -0.52899  -0.52333  -0.51560  -0.51110
 Alpha  occ. eigenvalues --   -0.49965  -0.46687  -0.46446  -0.44649  -0.44113
 Alpha  occ. eigenvalues --   -0.40818  -0.37125  -0.36005  -0.30709
 Alpha virt. eigenvalues --   -0.07211   0.07390   0.09508   0.11876   0.15018
 Alpha virt. eigenvalues --    0.16264   0.16987   0.17648   0.19620   0.19738
 Alpha virt. eigenvalues --    0.21355   0.22542   0.23271   0.24235   0.24596
 Alpha virt. eigenvalues --    0.27752   0.28927   0.29057   0.29775   0.32306
 Alpha virt. eigenvalues --    0.35086   0.35447   0.38820   0.39477   0.40753
 Alpha virt. eigenvalues --    0.43676   0.44795   0.45624   0.47907   0.48214
 Alpha virt. eigenvalues --    0.49314   0.49340   0.49636   0.50331   0.50847
 Alpha virt. eigenvalues --    0.53118   0.54041   0.54678   0.54845   0.57939
 Alpha virt. eigenvalues --    0.58222   0.58882   0.59837   0.60515   0.64590
 Alpha virt. eigenvalues --    0.64651   0.66607   0.67457   0.72020   0.73835
 Alpha virt. eigenvalues --    0.74767   0.75228   0.75971   0.76959   0.77644
 Alpha virt. eigenvalues --    0.78189   0.79218   0.80528   0.80642   0.81333
 Alpha virt. eigenvalues --    0.83612   0.83733   0.85422   0.87960   0.89152
 Alpha virt. eigenvalues --    0.95504   0.95748   0.96304   1.01797   1.04188
 Alpha virt. eigenvalues --    1.05614   1.08732   1.11393   1.14577   1.15489
 Alpha virt. eigenvalues --    1.20500   1.22369   1.22484   1.24149   1.25669
 Alpha virt. eigenvalues --    1.26056   1.27287   1.30443   1.30935   1.32115
 Alpha virt. eigenvalues --    1.34300   1.34525   1.36618   1.38946   1.39652
 Alpha virt. eigenvalues --    1.42714   1.43342   1.45095   1.46961   1.47574
 Alpha virt. eigenvalues --    1.55291   1.57847   1.60626   1.61462   1.63586
 Alpha virt. eigenvalues --    1.69215   1.70258   1.71795   1.73054   1.73924
 Alpha virt. eigenvalues --    1.75047   1.75602   1.78928   1.79682   1.80025
 Alpha virt. eigenvalues --    1.82441   1.84641   1.86584   1.88213   1.91791
 Alpha virt. eigenvalues --    1.92436   1.94691   1.95134   1.98144   2.00457
 Alpha virt. eigenvalues --    2.02492   2.05365   2.05583   2.06769   2.08389
 Alpha virt. eigenvalues --    2.08845   2.10791   2.12870   2.14655   2.16621
 Alpha virt. eigenvalues --    2.20899   2.22278   2.22856   2.27882   2.28385
 Alpha virt. eigenvalues --    2.32985   2.35273   2.35759   2.36883   2.39337
 Alpha virt. eigenvalues --    2.41497   2.42644   2.44379   2.50644   2.55974
 Alpha virt. eigenvalues --    2.63933   2.65685   2.67667   2.69261   2.72922
 Alpha virt. eigenvalues --    2.74594   2.77503   2.78817   2.80464   2.81053
 Alpha virt. eigenvalues --    2.85079   2.87382   2.99568   3.00542   3.06719
 Alpha virt. eigenvalues --    3.09292   3.12245   3.13233   3.15634   3.19221
 Alpha virt. eigenvalues --    3.19619   3.19860   3.23330   3.24243   3.26294
 Alpha virt. eigenvalues --    3.37695   3.40189   3.45536   3.49619   3.54519
 Alpha virt. eigenvalues --    3.60970   3.63800   3.73220   3.81826   3.84230
 Alpha virt. eigenvalues --    3.84586   3.90227
          Condensed to atoms (all electrons):
               1          2          3          4          5          6
     1  N    6.390304  -0.041975   0.445117  -0.045216  -0.103619   0.413848
     2  N   -0.041975   6.385520   0.000190  -0.000001  -0.000567  -0.010997
     3  C    0.445117   0.000190   4.731069   0.336174   0.024277  -0.153059
     4  C   -0.045216  -0.000001   0.336174   4.961656   0.342521   0.020799
     5  C   -0.103619  -0.000567   0.024277   0.342521   5.036600   0.313463
     6  C    0.413848  -0.010997  -0.153059   0.020799   0.313463   5.155502
     7  C   -0.055601  -0.056426   0.007499   0.017674  -0.103474   0.328413
     8  C   -0.014125   0.412529   0.001437  -0.001259   0.014018   0.017958
     9  C   -0.000604  -0.106038   0.000039   0.000001  -0.000030   0.011821
    10  C    0.000024  -0.044507  -0.000004  -0.000000   0.000001  -0.001018
    11  C    0.000171   0.456629  -0.000021  -0.000004   0.000039   0.001343
    12  B    0.285156   0.277329  -0.011271   0.000595   0.000705  -0.048825
    13  F   -0.034738  -0.033813  -0.002384  -0.000164  -0.000021  -0.002599
    14  F   -0.032786  -0.032754   0.001056   0.000244  -0.000076  -0.002600
    15  H    0.007249   0.006582  -0.000667   0.000862  -0.024107  -0.035169
    16  H    0.000223  -0.037336   0.000004  -0.000000  -0.000001   0.000058
    17  H    0.005930  -0.000013   0.016649  -0.071215   0.484725  -0.066507
    18  H    0.005742   0.000003  -0.074176   0.486918  -0.071094   0.017328
    19  H    0.000003   0.006074   0.000000   0.000000  -0.000000   0.000007
    20  H   -0.033528   0.000185   0.454666  -0.073765   0.014324   0.002872
    21  H   -0.000015   0.006405  -0.000000   0.000000   0.000004   0.000030
               7          8          9         10         11         12
     1  N   -0.055601  -0.014125  -0.000604   0.000024   0.000171   0.285156
     2  N   -0.056426   0.412529  -0.106038  -0.044507   0.456629   0.277329
     3  C    0.007499   0.001437   0.000039  -0.000004  -0.000021  -0.011271
     4  C    0.017674  -0.001259   0.000001  -0.000000  -0.000004   0.000595
     5  C   -0.103474   0.014018  -0.000030   0.000001   0.000039   0.000705
     6  C    0.328413   0.017958   0.011821  -0.001018   0.001343  -0.048825
     7  C    5.029623   0.292642  -0.108392   0.020488   0.005438  -0.004115
     8  C    0.292642   5.149672   0.359499   0.014396  -0.148042  -0.047816
     9  C   -0.108392   0.359499   5.064612   0.314768   0.019150   0.000968
    10  C    0.020488   0.014396   0.314768   4.969088   0.355400   0.000263
    11  C    0.005438  -0.148042   0.019150   0.355400   4.621563  -0.011415
    12  B   -0.004115  -0.047816   0.000968   0.000263  -0.011415   3.406316
    13  F    0.001111  -0.002565   0.000010  -0.000234  -0.001857   0.472190
    14  F    0.001303  -0.002496  -0.000090   0.000247   0.000810   0.453255
    15  H    0.453314  -0.056977  -0.019781   0.000462  -0.000457   0.002494
    16  H   -0.001061   0.000076   0.021200  -0.085190   0.453852  -0.000201
    17  H   -0.014104  -0.000009  -0.000002   0.000000  -0.000000   0.000389
    18  H   -0.000642   0.000007  -0.000000   0.000000   0.000000   0.000240
    19  H   -0.000587   0.016037  -0.081528   0.490694  -0.065519   0.000260
    20  H   -0.000686   0.000036  -0.000001   0.000000   0.000004   0.000090
    21  H   -0.017089  -0.041589   0.462019  -0.071741   0.012648   0.000342
              13         14         15         16         17         18
     1  N   -0.034738  -0.032786   0.007249   0.000223   0.005930   0.005742
     2  N   -0.033813  -0.032754   0.006582  -0.037336  -0.000013   0.000003
     3  C   -0.002384   0.001056  -0.000667   0.000004   0.016649  -0.074176
     4  C   -0.000164   0.000244   0.000862  -0.000000  -0.071215   0.486918
     5  C   -0.000021  -0.000076  -0.024107  -0.000001   0.484725  -0.071094
     6  C   -0.002599  -0.002600  -0.035169   0.000058  -0.066507   0.017328
     7  C    0.001111   0.001303   0.453314  -0.001061  -0.014104  -0.000642
     8  C   -0.002565  -0.002496  -0.056977   0.000076  -0.000009   0.000007
     9  C    0.000010  -0.000090  -0.019781   0.021200  -0.000002  -0.000000
    10  C   -0.000234   0.000247   0.000462  -0.085190   0.000000   0.000000
    11  C   -0.001857   0.000810  -0.000457   0.453852  -0.000000   0.000000
    12  B    0.472190   0.453255   0.002494  -0.000201   0.000389   0.000240
    13  F    8.854262  -0.026540   0.000001  -0.000089   0.000001   0.000002
    14  F   -0.026540   8.867486   0.000006   0.001813   0.000001   0.000001
    15  H    0.000001   0.000006   0.752015   0.000012   0.001897   0.000018
    16  H   -0.000089   0.001813   0.000012   0.759618  -0.000000  -0.000000
    17  H    0.000001   0.000001   0.001897  -0.000000   0.712613  -0.010701
    18  H    0.000002   0.000001   0.000018  -0.000000  -0.010701   0.701211
    19  H    0.000001   0.000001   0.000007  -0.009935  -0.000000  -0.000000
    20  H    0.000410   0.000790   0.000011   0.000001  -0.000302  -0.006216
    21  H    0.000001   0.000001   0.002585  -0.000343  -0.000001  -0.000000
              19         20         21
     1  N    0.000003  -0.033528  -0.000015
     2  N    0.006074   0.000185   0.006405
     3  C    0.000000   0.454666  -0.000000
     4  C    0.000000  -0.073765   0.000000
     5  C   -0.000000   0.014324   0.000004
     6  C    0.000007   0.002872   0.000030
     7  C   -0.000587  -0.000686  -0.017089
     8  C    0.016037   0.000036  -0.041589
     9  C   -0.081528  -0.000001   0.462019
    10  C    0.490694   0.000000  -0.071741
    11  C   -0.065519   0.000004   0.012648
    12  B    0.000260   0.000090   0.000342
    13  F    0.000001   0.000410   0.000001
    14  F    0.000001   0.000790   0.000001
    15  H    0.000007   0.000011   0.002585
    16  H   -0.009935   0.000001  -0.000343
    17  H   -0.000000  -0.000302  -0.000001
    18  H   -0.000000  -0.006216  -0.000000
    19  H    0.706321  -0.000000  -0.006794
    20  H   -0.000000   0.655756  -0.000000
    21  H   -0.006794  -0.000000   0.672590
 Mulliken charges:
               1
     1  N   -0.191560
     2  N   -0.187019
     3  C    0.223406
     4  C    0.024180
     5  C    0.072312
     6  C    0.037332
     7  C    0.204673
     8  C    0.036573
     9  C    0.062380
    10  C    0.036862
    11  C    0.300268
    12  B    0.223051
    13  F   -0.222986
    14  F   -0.229673
    15  H   -0.090358
    16  H   -0.102703
    17  H   -0.059352
    18  H   -0.048641
    19  H   -0.055044
    20  H   -0.014647
    21  H   -0.019054
 Sum of Mulliken charges =  -0.00000
 Mulliken charges with hydrogens summed into heavy atoms:
               1
     1  N   -0.191560
     2  N   -0.187019
     3  C    0.208760
     4  C   -0.024460
     5  C    0.012960
     6  C    0.037332
     7  C    0.114315
     8  C    0.036573
     9  C    0.043326
    10  C   -0.018182
    11  C    0.197564
    12  B    0.223051
    13  F   -0.222986
    14  F   -0.229673
 Electronic spatial extent (au):  <R**2>=          37722.6354
 Charge=              0.0000 electrons
 Dipole moment (field-independent basis, Debye):
    X=              3.4459    Y=              3.5231    Z=             -1.6142  Tot=              5.1857
 Quadrupole moment (field-independent basis, Debye-Ang):
   XX=            -82.8727   YY=            -57.3353   ZZ=            -91.5626
   XY=             13.6534   XZ=             38.6030   YZ=             29.6823
 Traceless Quadrupole moment (field-independent basis, Debye-Ang):
   XX=             -5.6158   YY=             19.9216   ZZ=            -14.3058
   XY=             13.6534   XZ=             38.6030   YZ=             29.6823
 Octapole moment (field-independent basis, Debye-Ang**2):
  XXX=            217.9902  YYY=           -711.6364  ZZZ=          -2147.0717  XYY=            131.7737
  XXY=           -282.8283  XXZ=           -797.3577  XZZ=            470.8769  YZZ=             36.1446
  YYZ=           -546.0621  XYZ=            143.2575
 Hexadecapole moment (field-independent basis, Debye-Ang**3):
 XXXX=          -1051.5359 YYYY=          -5631.0693 ZZZZ=         -39209.4253 XXXY=            574.0854
 XXXZ=           1943.3777 YYYX=            827.1133 YYYZ=          -6777.9884 ZZZX=           5776.8855
 ZZZY=          -3968.6399 XXYY=          -1204.0364 XXZZ=          -8105.4742 YYZZ=          -6315.0376
 XXYZ=          -2716.4475 YYXZ=           1224.7061 ZZXY=           1637.7932
 N-N= 8.653207808970D+02 E-N=-3.321995400371D+03  KE= 6.759041713180D+02
 No NMR shielding tensors so no spin-rotation constants.
 Leave Link  601 at Tue May  6 19:25:48 2025, MaxMem=  2621440000 cpu:               1.3 elap:               0.1
 (Enter /usr/license/gaussian16_new/rev_c01/avx2/g16/l9999.exe)

 Test job not archived.
 1\1\GINC-TELLURIUM3\SP\RwB97XD\def2SVP\C9H7B1F2N2\PITESA\06-May-2025\0
 \\#p nosym unit=AU wb97xd def2svp GFINPUT charge\\SHARC-GAUSSIAN job\\
 0,1\N,0,-0.7993970006,3.4420070024,10.6968230076\N,0,-1.4959940011,3.0
 656410022,8.3205540059\C,0,-0.7577660005,3.5154570025,12.0486210086\C,
 0,0.2748730002,4.3340420031,12.4794030089\C,0,0.9324610007,4.789937003
 4,11.3408960081\C,0,0.2503890002,4.235771003,10.2259020073\C,0,0.44769
 60003,4.4009060031,8.8515990063\C,0,-0.4070910003,3.8457280027,7.90589
 50056\C,0,-0.4737770003,3.9439980028,6.4946440046\C,0,-1.5583930011,3.
 2530640023,6.0554650043\C,0,-2.1823780016,2.7222000019,7.2173160051\B,
 0,-1.7646910013,2.6219030019,9.793609007\F,0,-1.5099840011,1.258169000
 9,9.9392180071\F,0,-3.0937690022,2.875178002,10.1397460072\H,0,1.12356
 00008,4.9844520035,8.5954810061\H,0,-2.9186980021,2.2186890016,7.23175
 90051\H,0,1.6745440012,5.3998230038,11.3615540081\H,0,0.5366570004,4.5
 386880032,13.3853040095\H,0,-1.8827850013,3.1406100022,5.1626630037\H,
 0,-1.339428001,2.9379900021,12.5690860089\H,0,0.1943640001,4.518426003
 2,5.9872780043\\Version=ES64L-G16RevC.01\HF=-680.7421179\RMSD=6.950e-0
 9\Dipole=1.3557099,1.3860875,-0.635065\Quadrupole=-4.1752144,14.811214
 ,-10.6359996,10.1509522,28.7004058,22.0680605\PG=C01 [X(C9H7B1F2N2)]\\
 @


 QUHEN THE CAUSS IS TAKEN AWAY THE EFFECT WANISHETH.
 -- PROVERBS AND REASONS OF THE YEAR 1585
           AS REPRINTED IN PAISLEY MAGAZINE 1828.
 Job cpu time:       0 days  0 hours  3 minutes 36.3 seconds.
 Elapsed time:       0 days  0 hours  0 minutes 11.0 seconds.
 File lengths (MBytes):  RWF=     47 Int=      0 D2E=      0 Chk=      5 Scr=      2
 Normal termination of Gaussian 16 at Tue May  6 19:25:48 2025.
