 Entering Gaussian System, Link 0=/usr/license/gaussian16_new/rev_c01/avx2/g16/g16
 Initial command:
 /usr/license/gaussian16_new/rev_c01/avx2/g16/l1.exe "./Gau-67653.inp" -scrdir="./"
 Entering Link 1 = /usr/license/gaussian16_new/rev_c01/avx2/g16/l1.exe PID=     67661.
  
 Copyright (c) 1988-2019, Gaussian, Inc.  All Rights Reserved.
  
 This is part of the Gaussian(R) 16 program.  It is based on
 the Gaussian(R) 09 system (copyright 2009, Gaussian, Inc.),
 the Gaussian(R) 03 system (copyright 2003, Gaussian, Inc.),
 the Gaussian(R) 98 system (copyright 1998, Gaussian, Inc.),
 the Gaussian(R) 94 system (copyright 1995, Gaussian, Inc.),
 the Gaussian 92(TM) system (copyright 1992, Gaussian, Inc.),
 the Gaussian 90(TM) system (copyright 1990, Gaussian, Inc.),
 the Gaussian 88(TM) system (copyright 1988, Gaussian, Inc.),
 the Gaussian 86(TM) system (copyright 1986, Carnegie Mellon
 University), and the Gaussian 82(TM) system (copyright 1983,
 Carnegie Mellon University). Gaussian is a federally registered
 trademark of Gaussian, Inc.
  
 This software contains proprietary and confidential information,
 including trade secrets, belonging to Gaussian, Inc.
  
 This software is provided under written license and may be
 used, copied, transmitted, or stored only in accord with that
 written license.
  
 The following legend is applicable only to US Government
 contracts under FAR:
  
                    RESTRICTED RIGHTS LEGEND
  
 Use, reproduction and disclosure by the US Government is
 subject to restrictions as set forth in subparagraphs (a)
 and (c) of the Commercial Computer Software - Restricted
 Rights clause in FAR 52.227-19.
  
 Gaussian, Inc.
 340 Quinnipiac St., Bldg. 40, Wallingford CT 06492
  
  
 ---------------------------------------------------------------
 Warning -- This program may not be used in any manner that
 competes with the business of Gaussian, Inc. or will provide
 assistance to any competitor of Gaussian, Inc.  The licensee
 of this program is prohibited from giving any competitor of
 Gaussian, Inc. access to this program.  By using this program,
 the user acknowledges that Gaussian, Inc. is engaged in the
 business of creating and licensing software in the field of
 computational chemistry and represents and warrants to the
 licensee that it is not a competitor of Gaussian, Inc. and that
 it will not use this program in any manner prohibited above.
 ---------------------------------------------------------------
  

 Cite this work as:
 Gaussian 16, Revision C.01,
 M. J. Frisch, G. W. Trucks, H. B. Schlegel, G. E. Scuseria, 
 M. A. Robb, J. R. Cheeseman, G. Scalmani, V. Barone, 
 G. A. Petersson, H. Nakatsuji, X. Li, M. Caricato, A. V. Marenich, 
 J. Bloino, B. G. Janesko, R. Gomperts, B. Mennucci, H. P. Hratchian, 
 J. V. Ortiz, A. F. Izmaylov, J. L. Sonnenberg, D. Williams-Young, 
 F. Ding, F. Lipparini, F. Egidi, J. Goings, B. Peng, A. Petrone, 
 T. Henderson, D. Ranasinghe, V. G. Zakrzewski, J. Gao, N. Rega, 
 G. Zheng, W. Liang, M. Hada, M. Ehara, K. Toyota, R. Fukuda, 
 J. Hasegawa, M. Ishida, T. Nakajima, Y. Honda, O. Kitao, H. Nakai, 
 T. Vreven, K. Throssell, J. A. Montgomery, Jr., J. E. Peralta, 
 F. Ogliaro, M. J. Bearpark, J. J. Heyd, E. N. Brothers, K. N. Kudin, 
 V. N. Staroverov, T. A. Keith, R. Kobayashi, J. Normand, 
 K. Raghavachari, A. P. Rendell, J. C. Burant, S. S. Iyengar, 
 J. Tomasi, M. Cossi, J. M. Millam, M. Klene, C. Adamo, R. Cammi, 
 J. W. Ochterski, R. L. Martin, K. Morokuma, O. Farkas, 
 J. B. Foresman, and D. J. Fox, Gaussian, Inc., Wallingford CT, 2019.
 
 ******************************************
 Gaussian 16:  ES64L-G16RevC.01  3-Jul-2019
                 6-May-2025 
 ******************************************
 %MEM=4000MB
 %NProcShared=4
 Will use up to    4 processors via shared memory.
 %Chk=GAUSSIAN.chk
 Default route: IOP(99/10=0)
 ----------------------------------------------
 #p nosym unit=AU wb97xd def2svp GFINPUT charge
 ----------------------------------------------
 1/18=10,20=1,28=-2,38=1,125=101,172=1/1;
 2/12=2,15=1,17=6,18=5,40=1/2;
 3/5=43,7=101,11=2,24=10,25=1,30=1,74=-58/1,2,3;
 4//1;
 5/5=2,38=5/2;
 6/7=2,8=2,9=2,10=2,28=1/1;
 99/5=1,9=1/99;
 Leave Link    1 at Tue May  6 19:25:56 2025, MaxMem=   524288000 cpu:               0.2 elap:               0.0
 (Enter /usr/license/gaussian16_new/rev_c01/avx2/g16/l101.exe)
 ------------------
 SHARC-GAUSSIAN job
 ------------------
 Symbolic Z-matrix:
 Charge = -1 Multiplicity = 2
 N                    -1.51064   6.50445   20.21407 
 N                    -2.82702   5.79322   15.72357 
 C                    -1.43197   6.64325   22.76859 
 C                     0.51943   8.19015   23.58265 
 C                     1.7621    9.05167   21.43119 
 C                     0.47317   8.00445   19.32415 
 C                     0.84602   8.31651   16.7271 
 C                    -0.76929   7.26737   14.93998 
 C                    -0.89531   7.45308   12.2731 
 C                    -2.94494   6.1474    11.44317 
 C                    -4.1241    5.14421   13.63875 
 B                    -3.33478   4.95468   18.50724 
 F                    -2.85346   2.37759   18.7824 
 F                    -5.84638   5.4333    19.16134 
 H                     2.12322   9.41925   16.24311 
 H                    -5.51554   4.19271   13.66604 
 H                     3.16443   10.20419   21.47023 
 H                     1.01413   8.57688   25.29456 
 H                    -3.55795   5.93489   9.75602 
 H                    -2.53115   5.552     23.75213 
 H                     0.36729   8.53859   11.31432 
 
 ITRead=  0  0  0  0  0  0  0  0  0  0  0  0  0  0  0  0  0  0  0  0
 ITRead=  0
 MicOpt= -1 -1 -1 -1 -1 -1 -1 -1 -1 -1 -1 -1 -1 -1 -1 -1 -1 -1 -1 -1
 MicOpt= -1
 NAtoms=     21 NQM=       21 NQMF=       0 NMMI=      0 NMMIF=      0
                NMic=       0 NMicF=      0.
                    Isotopes and Nuclear Properties:
 (Nuclear quadrupole moments (NQMom) in fm**2, nuclear magnetic moments (NMagM)
  in nuclear magnetons)

  Atom         1           2           3           4           5           6           7           8           9          10
 IAtWgt=          14          14          12          12          12          12          12          12          12          12
 AtmWgt=  14.0030740  14.0030740  12.0000000  12.0000000  12.0000000  12.0000000  12.0000000  12.0000000  12.0000000  12.0000000
 NucSpn=           2           2           0           0           0           0           0           0           0           0
 AtZEff=  -0.0000000  -0.0000000  -0.0000000  -0.0000000  -0.0000000  -0.0000000  -0.0000000  -0.0000000  -0.0000000  -0.0000000
 NQMom=    2.0440000   2.0440000   0.0000000   0.0000000   0.0000000   0.0000000   0.0000000   0.0000000   0.0000000   0.0000000
 NMagM=    0.4037610   0.4037610   0.0000000   0.0000000   0.0000000   0.0000000   0.0000000   0.0000000   0.0000000   0.0000000
 AtZNuc=   7.0000000   7.0000000   6.0000000   6.0000000   6.0000000   6.0000000   6.0000000   6.0000000   6.0000000   6.0000000

  Atom        11          12          13          14          15          16          17          18          19          20
 IAtWgt=          12          11          19          19           1           1           1           1           1           1
 AtmWgt=  12.0000000  11.0093053  18.9984032  18.9984032   1.0078250   1.0078250   1.0078250   1.0078250   1.0078250   1.0078250
 NucSpn=           0           3           1           1           1           1           1           1           1           1
 AtZEff=  -0.0000000  -0.0000000  -0.0000000  -0.0000000  -0.0000000  -0.0000000  -0.0000000  -0.0000000  -0.0000000  -0.0000000
 NQMom=    0.0000000   4.0590000   0.0000000   0.0000000   0.0000000   0.0000000   0.0000000   0.0000000   0.0000000   0.0000000
 NMagM=    0.0000000   2.6886370   2.6288670   2.6288670   2.7928460   2.7928460   2.7928460   2.7928460   2.7928460   2.7928460
 AtZNuc=   6.0000000   5.0000000   9.0000000   9.0000000   1.0000000   1.0000000   1.0000000   1.0000000   1.0000000   1.0000000

  Atom        21
 IAtWgt=           1
 AtmWgt=   1.0078250
 NucSpn=           1
 AtZEff=  -0.0000000
 NQMom=    0.0000000
 NMagM=    2.7928460
 AtZNuc=   1.0000000
 Background charge distribution read from input stream:
 Point Charges:
 XYZ=   -5.8704   -1.6235   10.6968 Q=   -0.0546 A=    0.0000 R=    0.0000 C=    0.0000
 XYZ=   -6.5670   -1.9999    8.3206 Q=   -0.0429 A=    0.0000 R=    0.0000 C=    0.0000
 XYZ=   -5.8288   -1.5500   12.0486 Q=   -0.0259 A=    0.0000 R=    0.0000 C=    0.0000
 XYZ=   -4.7961   -0.7315   12.4794 Q=   -0.2481 A=    0.0000 R=    0.0000 C=    0.0000
 XYZ=   -4.1385   -0.2756   11.3409 Q=   -0.1631 A=    0.0000 R=    0.0000 C=    0.0000
 XYZ=   -4.8206   -0.8297   10.2259 Q=    0.0566 A=    0.0000 R=    0.0000 C=    0.0000
 XYZ=   -4.6233   -0.6646    8.8516 Q=   -0.1118 A=    0.0000 R=    0.0000 C=    0.0000
 XYZ=   -5.4781   -1.2198    7.9059 Q=    0.0357 A=    0.0000 R=    0.0000 C=    0.0000
 XYZ=   -5.5448   -1.1215    6.4946 Q=   -0.1673 A=    0.0000 R=    0.0000 C=    0.0000
 XYZ=   -6.6294   -1.8124    6.0555 Q=   -0.2358 A=    0.0000 R=    0.0000 C=    0.0000
 XYZ=   -7.2534   -2.3433    7.2173 Q=   -0.0236 A=    0.0000 R=    0.0000 C=    0.0000
 XYZ=   -6.8357   -2.4436    9.7936 Q=    0.4464 A=    0.0000 R=    0.0000 C=    0.0000
 XYZ=   -6.5810   -3.8073    9.9392 Q=   -0.3433 A=    0.0000 R=    0.0000 C=    0.0000
 XYZ=   -8.1648   -2.1903   10.1397 Q=   -0.3566 A=    0.0000 R=    0.0000 C=    0.0000
 XYZ=   -3.9474   -0.0810    8.5955 Q=    0.1912 A=    0.0000 R=    0.0000 C=    0.0000
 XYZ=   -7.9897   -2.8468    7.2318 Q=    0.1796 A=    0.0000 R=    0.0000 C=    0.0000
 XYZ=   -3.3965    0.3343   11.3616 Q=    0.1968 A=    0.0000 R=    0.0000 C=    0.0000
 XYZ=   -4.5343   -0.5268   13.3853 Q=    0.1698 A=    0.0000 R=    0.0000 C=    0.0000
 XYZ=   -6.9538   -1.9249    5.1627 Q=    0.1723 A=    0.0000 R=    0.0000 C=    0.0000
 XYZ=   -6.4104   -2.1275   12.5691 Q=    0.1735 A=    0.0000 R=    0.0000 C=    0.0000
 XYZ=   -4.8766   -0.5471    5.9873 Q=    0.1510 A=    0.0000 R=    0.0000 C=    0.0000
 Pt Chg Charge=             -0.0000 electrons
 Pt Chg Dipole moment (Debye):
    X=              3.7113    Y=              3.6427    Z=             -1.1623  Tot=              5.3286
 Pt Chg Quadrupole moment (Debye-Ang):
   XX=            -40.2736   YY=            -12.5913   ZZ=             -5.4092
   XY=            -22.3133   XZ=             47.1169   YZ=             38.7021
 Pt Chg Traceless Quadrupole moment (Debye-Ang):
   XX=            -20.8489   YY=              6.8334   ZZ=             14.0155
   XY=            -22.3133   XZ=             47.1169   YZ=             38.7021
 Pt Chg Octapole moment (Debye-Ang**2):
  XXX=            353.6045  YYY=             56.4275  ZZZ=            158.7445  XYY=             81.1448
  XXY=            145.4800  XXZ=           -493.3423  XZZ=            461.3203  YZZ=            383.5105
  YYZ=           -134.3469  XYZ=           -248.7820
 Pt Chg Hexadecapole moment (Debye-Ang**3):
 XXXX=          -2965.6665 YYYY=           -246.9171 ZZZZ=           5336.6460 XXXY=          -1005.5748
 XXXZ=           4366.6965 YYYX=           -361.7612 YYYZ=            596.7927 ZZZX=           3639.6885
 ZZZY=           3594.2571 XXYY=           -529.6863 XXZZ=          -5091.2548 YYZZ=          -1353.2545
 XXYZ=           1717.3359 YYXZ=            902.4175 ZZXY=          -2532.9141
 Leave Link  101 at Tue May  6 19:25:57 2025, MaxMem=   524288000 cpu:               0.2 elap:               0.2
 (Enter /usr/license/gaussian16_new/rev_c01/avx2/g16/l202.exe)
                          Input orientation:                          
 ---------------------------------------------------------------------
 Center     Atomic      Atomic             Coordinates (Angstroms)
 Number     Number       Type             X           Y           Z
 ---------------------------------------------------------------------
      1          7           0       -0.799397    3.442007   10.696823
      2          7           0       -1.495994    3.065641    8.320554
      3          6           0       -0.757766    3.515457   12.048621
      4          6           0        0.274873    4.334042   12.479403
      5          6           0        0.932461    4.789937   11.340896
      6          6           0        0.250389    4.235771   10.225902
      7          6           0        0.447696    4.400906    8.851599
      8          6           0       -0.407091    3.845728    7.905895
      9          6           0       -0.473777    3.943998    6.494644
     10          6           0       -1.558393    3.253064    6.055465
     11          6           0       -2.182378    2.722200    7.217316
     12          5           0       -1.764691    2.621903    9.793609
     13          9           0       -1.509984    1.258169    9.939218
     14          9           0       -3.093769    2.875178   10.139746
     15          1           0        1.123560    4.984452    8.595481
     16          1           0       -2.918698    2.218689    7.231759
     17          1           0        1.674544    5.399823   11.361554
     18          1           0        0.536657    4.538688   13.385304
     19          1           0       -1.882785    3.140610    5.162663
     20          1           0       -1.339428    2.937990   12.569086
     21          1           0        0.194364    4.518426    5.987278
 ---------------------------------------------------------------------
                    Distance matrix (angstroms):
                    1          2          3          4          5
     1  N    0.000000
     2  N    2.504706   0.000000
     3  C    1.354432   3.826983   0.000000
     4  C    2.264371   4.694767   1.386361   0.000000
     5  C    2.287155   4.241822   2.232049   1.391568   0.000000
     6  C    1.397812   2.837148   2.203981   2.255776   1.419695
     7  C    2.424784   2.417203   3.529605   3.632534   2.565724
     8  C    2.847134   1.402208   4.170639   4.649785   3.805938
     9  C    4.244565   2.269446   5.577720   6.044001   5.116569
    10  C    4.706801   2.273686   6.052088   6.767301   6.041698
    11  C    3.812837   1.343953   5.099047   6.027079   5.566118
    12  B    1.555686   1.561727   2.626293   3.782160   3.790659
    13  F    2.418274   2.426360   3.179742   4.370269   4.517037
    14  F    2.428121   2.428708   3.083938   4.353163   4.617314
    15  H    3.239219   3.258755   4.197798   4.028418   2.758923
    16  H    4.242006   1.981638   5.436303   6.497029   6.190941
    17  H    3.224174   4.974776   3.152622   2.084359   0.960768
    18  H    3.196198   5.652719   2.123500   0.964918   2.097473
    19  H    5.647256   3.182374   6.987317   7.721040   6.986877
    20  H    2.012718   4.253332   0.970918   2.136111   3.177993
    21  H    4.932145   3.226774   6.217104   6.495242   5.411075
                    6          7          8          9         10
     6  C    0.000000
     7  C    1.398180   0.000000
     8  C    2.442713   1.390410   0.000000
     9  C    3.812064   2.571598   1.416239   0.000000
    10  C    4.650801   3.627713   2.258504   1.358919   0.000000
    11  C    4.154617   3.522247   2.210905   2.221343   1.421644
    12  B    2.617631   2.991135   2.627601   3.781212   3.796662
    13  F    3.470910   3.859044   3.470769   4.489153   4.366404
    14  F    3.611375   4.065605   3.626334   4.614488   4.379672
    15  H    1.995300   0.928932   2.028574   2.836820   4.079492
    16  H    4.803814   4.326495   3.067554   3.081829   2.074615
    17  H    2.161698   2.966962   4.323193   5.515571   6.573814
    18  H    3.186774   4.536670   5.603104   6.989694   7.731016
    19  H    5.602339   4.541777   3.193773   2.098788   0.956541
    20  H    3.114846   4.376488   4.841342   6.217737   6.524912
    21  H    4.248407   2.877903   2.120227   1.016760   2.162856
                   11         12         13         14         15
    11  C    0.000000
    12  B    2.611859   0.000000
    13  F    3.162950   1.394937   0.000000
    14  F    3.065067   1.396570   2.272291   0.000000
    15  H    4.236313   3.919074   4.756718   4.961820   0.000000
    16  H    0.892132   2.838554   3.199595   2.986305   5.084194
    17  H    6.262605   4.690803   5.414569   5.532039   2.850838
    18  H    6.981179   4.676595   5.179387   5.145960   4.846191
    19  H    2.118118   4.661402   5.147625   5.129161   4.921596
    20  H    5.422045   2.825603   3.125235   2.997224   5.103318
    21  H    3.223092   4.682185   5.399251   5.545726   2.807723
                   16         17         18         19         20
    16  H    0.000000
    17  H    6.947855   0.000000
    18  H    7.428862   2.476268   0.000000
    19  H    2.490826   7.495658   8.684477   0.000000
    20  H    5.612357   4.074651   2.597718   7.429091   0.000000
    21  H    4.065548   5.643637   7.405968   2.625436   6.940497
                   21
    21  H    0.000000
 Symmetry turned off by external request.
 Stoichiometry    C9H7BF2N2(1-,2)
 Framework group  C1[X(C9H7BF2N2)]
 Deg. of freedom    57
 Full point group                 C1      NOp   1
 Rotational constants (GHZ):           1.2887992           0.6413832           0.4683174
 Leave Link  202 at Tue May  6 19:25:57 2025, MaxMem=   524288000 cpu:               0.0 elap:               0.0
 (Enter /usr/license/gaussian16_new/rev_c01/avx2/g16/l301.exe)
 Standard basis: def2SVP (5D, 7F)
 Ernie: Thresh=  0.10000D-02 Tol=  0.10000D-05 Strict=F.
 AO basis set in the form of general basis input (Overlap normalization):
      1 0
 S   5 1.00       0.000000000000
      0.1712841585D+04 -0.5447799580D-02
      0.2576481268D+03 -0.4062717463D-01
      0.5845824585D+02 -0.1811196225D+00
      0.1619836791D+02 -0.4684397556D+00
      0.5005260081D+01 -0.4461684629D+00
 S   1 1.00       0.000000000000
      0.5873185657D+00  0.1000000000D+01
 S   1 1.00       0.000000000000
      0.1876459225D+00  0.1000000000D+01
 P   3 1.00       0.000000000000
      0.1357147023D+02 -0.5884811697D-01
      0.2925737287D+01 -0.3202462476D+00
      0.7992775075D+00 -0.7532822652D+00
 P   1 1.00       0.000000000000
      0.2195434803D+00  0.1000000000D+01
 D   1 1.00       0.000000000000
      0.1000000000D+01  0.1000000000D+01
 ****
      2 0
 S   5 1.00       0.000000000000
      0.1712841585D+04 -0.5447799580D-02
      0.2576481268D+03 -0.4062717463D-01
      0.5845824585D+02 -0.1811196225D+00
      0.1619836791D+02 -0.4684397556D+00
      0.5005260081D+01 -0.4461684629D+00
 S   1 1.00       0.000000000000
      0.5873185657D+00  0.1000000000D+01
 S   1 1.00       0.000000000000
      0.1876459225D+00  0.1000000000D+01
 P   3 1.00       0.000000000000
      0.1357147023D+02 -0.5884811697D-01
      0.2925737287D+01 -0.3202462476D+00
      0.7992775075D+00 -0.7532822652D+00
 P   1 1.00       0.000000000000
      0.2195434803D+00  0.1000000000D+01
 D   1 1.00       0.000000000000
      0.1000000000D+01  0.1000000000D+01
 ****
      3 0
 S   5 1.00       0.000000000000
      0.1238401694D+04  0.5517365048D-02
      0.1862900499D+03  0.4108882856D-01
      0.4225117635D+02  0.1822538213D+00
      0.1167655793D+02  0.4682845944D+00
      0.3593050648D+01  0.4457581734D+00
 S   1 1.00       0.000000000000
      0.4024514736D+00  0.1000000000D+01
 S   1 1.00       0.000000000000
      0.1309018267D+00  0.1000000000D+01
 P   3 1.00       0.000000000000
      0.9468097062D+01  0.5688833201D-01
      0.2010354514D+01  0.3129405934D+00
      0.5477100471D+00  0.7606501651D+00
 P   1 1.00       0.000000000000
      0.1526861379D+00  0.1000000000D+01
 D   1 1.00       0.000000000000
      0.8000000000D+00  0.1000000000D+01
 ****
      4 0
 S   5 1.00       0.000000000000
      0.1238401694D+04  0.5517365048D-02
      0.1862900499D+03  0.4108882856D-01
      0.4225117635D+02  0.1822538213D+00
      0.1167655793D+02  0.4682845944D+00
      0.3593050648D+01  0.4457581734D+00
 S   1 1.00       0.000000000000
      0.4024514736D+00  0.1000000000D+01
 S   1 1.00       0.000000000000
      0.1309018267D+00  0.1000000000D+01
 P   3 1.00       0.000000000000
      0.9468097062D+01  0.5688833201D-01
      0.2010354514D+01  0.3129405934D+00
      0.5477100471D+00  0.7606501651D+00
 P   1 1.00       0.000000000000
      0.1526861379D+00  0.1000000000D+01
 D   1 1.00       0.000000000000
      0.8000000000D+00  0.1000000000D+01
 ****
      5 0
 S   5 1.00       0.000000000000
      0.1238401694D+04  0.5517365048D-02
      0.1862900499D+03  0.4108882856D-01
      0.4225117635D+02  0.1822538213D+00
      0.1167655793D+02  0.4682845944D+00
      0.3593050648D+01  0.4457581734D+00
 S   1 1.00       0.000000000000
      0.4024514736D+00  0.1000000000D+01
 S   1 1.00       0.000000000000
      0.1309018267D+00  0.1000000000D+01
 P   3 1.00       0.000000000000
      0.9468097062D+01  0.5688833201D-01
      0.2010354514D+01  0.3129405934D+00
      0.5477100471D+00  0.7606501651D+00
 P   1 1.00       0.000000000000
      0.1526861379D+00  0.1000000000D+01
 D   1 1.00       0.000000000000
      0.8000000000D+00  0.1000000000D+01
 ****
      6 0
 S   5 1.00       0.000000000000
      0.1238401694D+04  0.5517365048D-02
      0.1862900499D+03  0.4108882856D-01
      0.4225117635D+02  0.1822538213D+00
      0.1167655793D+02  0.4682845944D+00
      0.3593050648D+01  0.4457581734D+00
 S   1 1.00       0.000000000000
      0.4024514736D+00  0.1000000000D+01
 S   1 1.00       0.000000000000
      0.1309018267D+00  0.1000000000D+01
 P   3 1.00       0.000000000000
      0.9468097062D+01  0.5688833201D-01
      0.2010354514D+01  0.3129405934D+00
      0.5477100471D+00  0.7606501651D+00
 P   1 1.00       0.000000000000
      0.1526861379D+00  0.1000000000D+01
 D   1 1.00       0.000000000000
      0.8000000000D+00  0.1000000000D+01
 ****
      7 0
 S   5 1.00       0.000000000000
      0.1238401694D+04  0.5517365048D-02
      0.1862900499D+03  0.4108882856D-01
      0.4225117635D+02  0.1822538213D+00
      0.1167655793D+02  0.4682845944D+00
      0.3593050648D+01  0.4457581734D+00
 S   1 1.00       0.000000000000
      0.4024514736D+00  0.1000000000D+01
 S   1 1.00       0.000000000000
      0.1309018267D+00  0.1000000000D+01
 P   3 1.00       0.000000000000
      0.9468097062D+01  0.5688833201D-01
      0.2010354514D+01  0.3129405934D+00
      0.5477100471D+00  0.7606501651D+00
 P   1 1.00       0.000000000000
      0.1526861379D+00  0.1000000000D+01
 D   1 1.00       0.000000000000
      0.8000000000D+00  0.1000000000D+01
 ****
      8 0
 S   5 1.00       0.000000000000
      0.1238401694D+04  0.5517365048D-02
      0.1862900499D+03  0.4108882856D-01
      0.4225117635D+02  0.1822538213D+00
      0.1167655793D+02  0.4682845944D+00
      0.3593050648D+01  0.4457581734D+00
 S   1 1.00       0.000000000000
      0.4024514736D+00  0.1000000000D+01
 S   1 1.00       0.000000000000
      0.1309018267D+00  0.1000000000D+01
 P   3 1.00       0.000000000000
      0.9468097062D+01  0.5688833201D-01
      0.2010354514D+01  0.3129405934D+00
      0.5477100471D+00  0.7606501651D+00
 P   1 1.00       0.000000000000
      0.1526861379D+00  0.1000000000D+01
 D   1 1.00       0.000000000000
      0.8000000000D+00  0.1000000000D+01
 ****
      9 0
 S   5 1.00       0.000000000000
      0.1238401694D+04  0.5517365048D-02
      0.1862900499D+03  0.4108882856D-01
      0.4225117635D+02  0.1822538213D+00
      0.1167655793D+02  0.4682845944D+00
      0.3593050648D+01  0.4457581734D+00
 S   1 1.00       0.000000000000
      0.4024514736D+00  0.1000000000D+01
 S   1 1.00       0.000000000000
      0.1309018267D+00  0.1000000000D+01
 P   3 1.00       0.000000000000
      0.9468097062D+01  0.5688833201D-01
      0.2010354514D+01  0.3129405934D+00
      0.5477100471D+00  0.7606501651D+00
 P   1 1.00       0.000000000000
      0.1526861379D+00  0.1000000000D+01
 D   1 1.00       0.000000000000
      0.8000000000D+00  0.1000000000D+01
 ****
     10 0
 S   5 1.00       0.000000000000
      0.1238401694D+04  0.5517365048D-02
      0.1862900499D+03  0.4108882856D-01
      0.4225117635D+02  0.1822538213D+00
      0.1167655793D+02  0.4682845944D+00
      0.3593050648D+01  0.4457581734D+00
 S   1 1.00       0.000000000000
      0.4024514736D+00  0.1000000000D+01
 S   1 1.00       0.000000000000
      0.1309018267D+00  0.1000000000D+01
 P   3 1.00       0.000000000000
      0.9468097062D+01  0.5688833201D-01
      0.2010354514D+01  0.3129405934D+00
      0.5477100471D+00  0.7606501651D+00
 P   1 1.00       0.000000000000
      0.1526861379D+00  0.1000000000D+01
 D   1 1.00       0.000000000000
      0.8000000000D+00  0.1000000000D+01
 ****
     11 0
 S   5 1.00       0.000000000000
      0.1238401694D+04  0.5517365048D-02
      0.1862900499D+03  0.4108882856D-01
      0.4225117635D+02  0.1822538213D+00
      0.1167655793D+02  0.4682845944D+00
      0.3593050648D+01  0.4457581734D+00
 S   1 1.00       0.000000000000
      0.4024514736D+00  0.1000000000D+01
 S   1 1.00       0.000000000000
      0.1309018267D+00  0.1000000000D+01
 P   3 1.00       0.000000000000
      0.9468097062D+01  0.5688833201D-01
      0.2010354514D+01  0.3129405934D+00
      0.5477100471D+00  0.7606501651D+00
 P   1 1.00       0.000000000000
      0.1526861379D+00  0.1000000000D+01
 D   1 1.00       0.000000000000
      0.8000000000D+00  0.1000000000D+01
 ****
     12 0
 S   5 1.00       0.000000000000
      0.8393183009D+03 -0.5628883598D-02
      0.1262646484D+03 -0.4183279461D-01
      0.2862060076D+02 -0.1841748813D+00
      0.7879372271D+01 -0.4683965503D+00
      0.2408885717D+01 -0.4445793088D+00
 S   1 1.00       0.000000000000
      0.2510510904D+00  0.1000000000D+01
 S   1 1.00       0.000000000000
      0.8364886607D-01  0.1000000000D+01
 P   3 1.00       0.000000000000
      0.6033222362D+01 -0.5403250032D-01
      0.1249915787D+01 -0.3019403439D+00
      0.3387167635D+00 -0.7717079166D+00
 P   1 1.00       0.000000000000
      0.9641563235D-01  0.1000000000D+01
 D   1 1.00       0.000000000000
      0.5000000000D+00  0.1000000000D+01
 ****
     13 0
 S   5 1.00       0.000000000000
      0.2894832599D+04 -0.5349321176D-02
      0.4354193912D+03 -0.3996773437D-01
      0.9884332887D+02 -0.1794126179D+00
      0.2748519800D+02 -0.4683246869D+00
      0.8540549817D+01 -0.4472416053D+00
 S   1 1.00       0.000000000000
      0.1065457804D+01  0.1000000000D+01
 S   1 1.00       0.000000000000
      0.3324734675D+00  0.1000000000D+01
 P   3 1.00       0.000000000000
      0.2269663392D+02 -0.6478214824D-01
      0.4987233926D+01 -0.3403578536D+00
      0.1349161395D+01 -0.7348581537D+00
 P   1 1.00       0.000000000000
      0.3482988198D+00  0.1000000000D+01
 D   1 1.00       0.000000000000
      0.1400000000D+01  0.1000000000D+01
 ****
     14 0
 S   5 1.00       0.000000000000
      0.2894832599D+04 -0.5349321176D-02
      0.4354193912D+03 -0.3996773437D-01
      0.9884332887D+02 -0.1794126179D+00
      0.2748519800D+02 -0.4683246869D+00
      0.8540549817D+01 -0.4472416053D+00
 S   1 1.00       0.000000000000
      0.1065457804D+01  0.1000000000D+01
 S   1 1.00       0.000000000000
      0.3324734675D+00  0.1000000000D+01
 P   3 1.00       0.000000000000
      0.2269663392D+02 -0.6478214824D-01
      0.4987233926D+01 -0.3403578536D+00
      0.1349161395D+01 -0.7348581537D+00
 P   1 1.00       0.000000000000
      0.3482988198D+00  0.1000000000D+01
 D   1 1.00       0.000000000000
      0.1400000000D+01  0.1000000000D+01
 ****
     15 0
 S   3 1.00       0.000000000000
      0.1301070100D+02  0.3348548481D-01
      0.1962257200D+01  0.2347218709D+00
      0.4445379600D+00  0.8137702853D+00
 S   1 1.00       0.000000000000
      0.1219496200D+00  0.1000000000D+01
 P   1 1.00       0.000000000000
      0.8000000000D+00  0.1000000000D+01
 ****
     16 0
 S   3 1.00       0.000000000000
      0.1301070100D+02  0.3348548481D-01
      0.1962257200D+01  0.2347218709D+00
      0.4445379600D+00  0.8137702853D+00
 S   1 1.00       0.000000000000
      0.1219496200D+00  0.1000000000D+01
 P   1 1.00       0.000000000000
      0.8000000000D+00  0.1000000000D+01
 ****
     17 0
 S   3 1.00       0.000000000000
      0.1301070100D+02  0.3348548481D-01
      0.1962257200D+01  0.2347218709D+00
      0.4445379600D+00  0.8137702853D+00
 S   1 1.00       0.000000000000
      0.1219496200D+00  0.1000000000D+01
 P   1 1.00       0.000000000000
      0.8000000000D+00  0.1000000000D+01
 ****
     18 0
 S   3 1.00       0.000000000000
      0.1301070100D+02  0.3348548481D-01
      0.1962257200D+01  0.2347218709D+00
      0.4445379600D+00  0.8137702853D+00
 S   1 1.00       0.000000000000
      0.1219496200D+00  0.1000000000D+01
 P   1 1.00       0.000000000000
      0.8000000000D+00  0.1000000000D+01
 ****
     19 0
 S   3 1.00       0.000000000000
      0.1301070100D+02  0.3348548481D-01
      0.1962257200D+01  0.2347218709D+00
      0.4445379600D+00  0.8137702853D+00
 S   1 1.00       0.000000000000
      0.1219496200D+00  0.1000000000D+01
 P   1 1.00       0.000000000000
      0.8000000000D+00  0.1000000000D+01
 ****
     20 0
 S   3 1.00       0.000000000000
      0.1301070100D+02  0.3348548481D-01
      0.1962257200D+01  0.2347218709D+00
      0.4445379600D+00  0.8137702853D+00
 S   1 1.00       0.000000000000
      0.1219496200D+00  0.1000000000D+01
 P   1 1.00       0.000000000000
      0.8000000000D+00  0.1000000000D+01
 ****
     21 0
 S   3 1.00       0.000000000000
      0.1301070100D+02  0.3348548481D-01
      0.1962257200D+01  0.2347218709D+00
      0.4445379600D+00  0.8137702853D+00
 S   1 1.00       0.000000000000
      0.1219496200D+00  0.1000000000D+01
 P   1 1.00       0.000000000000
      0.8000000000D+00  0.1000000000D+01
 ****

   231 basis functions,   399 primitive gaussians,   245 cartesian basis functions
    50 alpha electrons       49 beta electrons
       nuclear repulsion energy       864.2580296774 Hartrees.
 IExCor= 4639 DFT=T Ex+Corr=wB97XD ExCW=0 ScaHFX=  1.000000
 ScaDFX=  1.000000  1.000000  1.000000  1.000000 ScalE2=  1.000000  1.000000
 IRadAn=      5 IRanWt=     -1 IRanGd=            0 ICorTp=0 IEmpDi=121
 HFx  wShort=  0.000000 wLong=  0.200000 cFull=  0.222036 cShort=  0.000000 cLong=  0.777964
 DFx  wShort=  0.000000 wLong=  0.200000 cFull=  0.000000 cShort=  0.000000 cLong=  1.000000
 NAtoms=   21 NActive=   21 NUniq=   21 SFac= 1.00D+00 NAtFMM=   60 NAOKFM=F Big=F
 Integral buffers will be    131072 words long.
 Raffenetti 2 integral format.
 Two-electron integral symmetry is turned off.
 Background charge distribution read from rwf.
 PtFMM for NChg=        42 BoxLen=    40.00 Levels= 1 LMax=20 SMax=    18.6 ICnFMM=     1:
 Self energy of the charges =        -0.1959756849 a.u.
 MM   energy of the charges =         0.0000000000 a.u.
 Nuclei-charges interaction =         1.2752288298 a.u.
 Nuclear repulsion after external point charges =      865.3372828223 Hartrees.
 R6Disp:  Grimme-D2 Dispersion energy=       -0.0135649705 Hartrees.
 Nuclear repulsion after empirical dispersion term =      865.3237178517 Hartrees.
 Leave Link  301 at Tue May  6 19:25:57 2025, MaxMem=   524288000 cpu:               0.2 elap:               0.1
 (Enter /usr/license/gaussian16_new/rev_c01/avx2/g16/l302.exe)
 NPDir=0 NMtPBC=     1 NCelOv=     1 NCel=       1 NClECP=     1 NCelD=      1
         NCelK=      1 NCelE2=     1 NClLst=     1 CellRange=     0.0.
 One-electron integrals computed using PRISM.
   1 Symmetry operations used in ECPInt.
 ECPInt:  NShTT=    5565 NPrTT=   20909 LenC2=    5389 LenP2D=   15019.
 LDataN:  DoStor=T MaxTD1= 4 Len=   56
 NBasis=   231 RedAO= T EigKep=  6.04D-04  NBF=   231
 NBsUse=   231 1.00D-06 EigRej= -1.00D+00 NBFU=   231
 Precomputing XC quadrature grid using
 IXCGrd= 4 IRadAn=           5 IRanWt=          -1 IRanGd=           0 AccXCQ= 0.00D+00.
 Generated NRdTot=       0 NPtTot=           0 NUsed=           0 NTot=          32
 NSgBfM=   245   245   245   245   245 MxSgAt=    21 MxSgA2=    21.
 Leave Link  302 at Tue May  6 19:25:57 2025, MaxMem=   524288000 cpu:               0.8 elap:               0.3
 (Enter /usr/license/gaussian16_new/rev_c01/avx2/g16/l303.exe)
 DipDrv:  MaxL=1.
 Leave Link  303 at Tue May  6 19:25:58 2025, MaxMem=   524288000 cpu:               0.2 elap:               0.1
 (Enter /usr/license/gaussian16_new/rev_c01/avx2/g16/l401.exe)
 ExpMin= 8.36D-02 ExpMax= 2.89D+03 ExpMxC= 4.35D+02 IAcc=3 IRadAn=         5 AccDes= 0.00D+00
 Harris functional with IExCor= 4639 and IRadAn=       5 diagonalized for initial guess.
 HarFok:  IExCor= 4639 AccDes= 0.00D+00 IRadAn=         5 IDoV= 1 UseB2=F ITyADJ=14
 ICtDFT=  3500011 ScaDFX=  1.000000  1.000000  1.000000  1.000000
 FoFCou: FMM=F IPFlag=           0 FMFlag=      100000 FMFlg1=           0
         NFxFlg=           0 DoJE=T BraDBF=F KetDBF=T FulRan=T
         wScrn=  0.000000 ICntrl=       500 IOpCl=  0 I1Cent=   200000004 NGrid=           0
         NMat0=    1 NMatS0=      1 NMatT0=    0 NMatD0=    1 NMtDS0=    0 NMtDT0=    0
 Symmetry not used in FoFCou.
 Harris En= -653.438506702130    
 JPrj=0 DoOrth=F DoCkMO=F.
 Initial guess <Sx>= 0.0000 <Sy>= 0.0000 <Sz>= 0.5000 <S**2>= 0.7500 S= 0.5000
 Leave Link  401 at Tue May  6 19:25:59 2025, MaxMem=   524288000 cpu:               4.3 elap:               1.1
 (Enter /usr/license/gaussian16_new/rev_c01/avx2/g16/l502.exe)
 Two-electron integral symmetry not used.
 UHF open shell SCF:
 Using DIIS extrapolation, IDIIS=  1040.
 NGot=   524288000 LenX=   524163955 LenY=   524103489
 Requested convergence on RMS density matrix=1.00D-08 within 128 cycles.
 Requested convergence on MAX density matrix=1.00D-06.
 Requested convergence on             energy=1.00D-06.
 No special actions if energy rises.
 Fock matrices will be formed incrementally for  20 cycles.
 Integral accuracy reduced to 1.0D-05 until final iterations.

 Cycle   1  Pass 0  IDiag  1:
 FoFJK:  IHMeth= 1 ICntrl=       0 DoSepK=T KAlg= 0 I1Cent=           0 FoldK=F
 IRaf=         1 NMat=       1 IRICut=       1 DoRegI=T DoRafI=F ISym2E= 0 IDoP0=0 IntGTp=1.
 FoFCou: FMM=F IPFlag=           0 FMFlag=      100000 FMFlg1=           0
         NFxFlg=           0 DoJE=T BraDBF=F KetDBF=F FulRan=T
         wScrn=  0.000000 ICntrl=       500 IOpCl=  0 I1Cent=           0 NGrid=           0
         NMat0=    1 NMatS0=      1 NMatT0=    0 NMatD0=    1 NMtDS0=    0 NMtDT0=    0
 Symmetry not used in FoFCou.
 E= -680.604156767962    
 DIIS: error= 5.21D-02 at cycle   1 NSaved=   1.
 NSaved= 1 IEnMin= 1 EnMin= -680.604156767962     IErMin= 1 ErrMin= 5.21D-02
 ErrMax= 5.21D-02  0.00D+00 EMaxC= 1.00D-01 BMatC= 1.66D+00 BMatP= 1.66D+00
 IDIUse=3 WtCom= 4.79D-01 WtEn= 5.21D-01
 Coeff-Com:  0.100D+01
 Coeff-En:   0.100D+01
 Coeff:      0.100D+01
 Gap=     0.305 Goal=   None    Shift=    0.000
 Gap=     0.245 Goal=   None    Shift=    0.000
 GapD=    0.245 DampG=1.000 DampE=0.500 DampFc=0.5000 IDamp=-1.
 Damping current iteration by 5.00D-01
 RMSDP=4.02D-03 MaxDP=9.22D-02              OVMax= 1.55D-01

 Cycle   2  Pass 0  IDiag  1:
 RMSU=  1.97D-03    CP:  9.83D-01
 E= -680.702499814652     Delta-E=       -0.098343046690 Rises=F Damp=T
 DIIS: error= 1.58D-02 at cycle   2 NSaved=   2.
 NSaved= 2 IEnMin= 2 EnMin= -680.702499814652     IErMin= 2 ErrMin= 1.58D-02
 ErrMax= 1.58D-02  0.00D+00 EMaxC= 1.00D-01 BMatC= 2.23D-01 BMatP= 1.66D+00
 IDIUse=3 WtCom= 8.42D-01 WtEn= 1.58D-01
 Coeff-Com: -0.149D+00 0.115D+01
 Coeff-En:   0.000D+00 0.100D+01
 Coeff:     -0.126D+00 0.113D+01
 Gap=     0.310 Goal=   None    Shift=    0.000
 Gap=     0.251 Goal=   None    Shift=    0.000
 RMSDP=1.56D-03 MaxDP=3.99D-02 DE=-9.83D-02 OVMax= 1.21D-01

 Cycle   3  Pass 0  IDiag  1:
 RMSU=  1.47D-03    CP:  9.70D-01  1.21D+00
 E= -680.801649327214     Delta-E=       -0.099149512562 Rises=F Damp=F
 DIIS: error= 7.07D-03 at cycle   3 NSaved=   3.
 NSaved= 3 IEnMin= 3 EnMin= -680.801649327214     IErMin= 3 ErrMin= 7.07D-03
 ErrMax= 7.07D-03  0.00D+00 EMaxC= 1.00D-01 BMatC= 4.72D-02 BMatP= 2.23D-01
 IDIUse=3 WtCom= 9.29D-01 WtEn= 7.07D-02
 Coeff-Com: -0.155D+00 0.352D+00 0.803D+00
 Coeff-En:   0.000D+00 0.000D+00 0.100D+01
 Coeff:     -0.144D+00 0.327D+00 0.817D+00
 Gap=     0.306 Goal=   None    Shift=    0.000
 Gap=     0.251 Goal=   None    Shift=    0.000
 RMSDP=6.44D-04 MaxDP=2.07D-02 DE=-9.91D-02 OVMax= 4.27D-02

 Cycle   4  Pass 0  IDiag  1:
 RMSU=  3.81D-04    CP:  9.69D-01  1.41D+00  7.81D-01
 E= -680.810633835735     Delta-E=       -0.008984508522 Rises=F Damp=F
 DIIS: error= 3.10D-03 at cycle   4 NSaved=   4.
 NSaved= 4 IEnMin= 4 EnMin= -680.810633835735     IErMin= 4 ErrMin= 3.10D-03
 ErrMax= 3.10D-03  0.00D+00 EMaxC= 1.00D-01 BMatC= 1.17D-02 BMatP= 4.72D-02
 IDIUse=3 WtCom= 9.69D-01 WtEn= 3.10D-02
 Coeff-Com: -0.703D-01 0.131D+00 0.451D+00 0.489D+00
 Coeff-En:   0.000D+00 0.000D+00 0.991D-01 0.901D+00
 Coeff:     -0.681D-01 0.127D+00 0.440D+00 0.502D+00
 Gap=     0.306 Goal=   None    Shift=    0.000
 Gap=     0.254 Goal=   None    Shift=    0.000
 RMSDP=2.15D-04 MaxDP=6.56D-03 DE=-8.98D-03 OVMax= 1.13D-02

 Cycle   5  Pass 0  IDiag  1:
 RMSU=  1.12D-04    CP:  9.68D-01  1.40D+00  8.75D-01  6.98D-01
 E= -680.813160758179     Delta-E=       -0.002526922444 Rises=F Damp=F
 DIIS: error= 7.76D-04 at cycle   5 NSaved=   5.
 NSaved= 5 IEnMin= 5 EnMin= -680.813160758179     IErMin= 5 ErrMin= 7.76D-04
 ErrMax= 7.76D-04  0.00D+00 EMaxC= 1.00D-01 BMatC= 2.86D-04 BMatP= 1.17D-02
 IDIUse=3 WtCom= 9.92D-01 WtEn= 7.76D-03
 Coeff-Com:  0.870D-02-0.193D-01-0.130D-01 0.491D-01 0.974D+00
 Coeff-En:   0.000D+00 0.000D+00 0.000D+00 0.000D+00 0.100D+01
 Coeff:      0.864D-02-0.191D-01-0.129D-01 0.487D-01 0.975D+00
 Gap=     0.308 Goal=   None    Shift=    0.000
 Gap=     0.257 Goal=   None    Shift=    0.000
 RMSDP=7.89D-05 MaxDP=2.87D-03 DE=-2.53D-03 OVMax= 9.65D-03

 Cycle   6  Pass 0  IDiag  1:
 RMSU=  5.11D-05    CP:  9.68D-01  1.40D+00  8.88D-01  7.85D-01  1.39D+00
 E= -680.813418515094     Delta-E=       -0.000257756915 Rises=F Damp=F
 DIIS: error= 4.54D-04 at cycle   6 NSaved=   6.
 NSaved= 6 IEnMin= 6 EnMin= -680.813418515094     IErMin= 6 ErrMin= 4.54D-04
 ErrMax= 4.54D-04  0.00D+00 EMaxC= 1.00D-01 BMatC= 9.57D-05 BMatP= 2.86D-04
 IDIUse=3 WtCom= 9.95D-01 WtEn= 4.54D-03
 Coeff-Com:  0.278D-01-0.534D-01-0.162D+00-0.171D+00 0.179D+00 0.118D+01
 Coeff-En:   0.000D+00 0.000D+00 0.000D+00 0.000D+00 0.000D+00 0.100D+01
 Coeff:      0.277D-01-0.532D-01-0.161D+00-0.170D+00 0.178D+00 0.118D+01
 Gap=     0.311 Goal=   None    Shift=    0.000
 Gap=     0.260 Goal=   None    Shift=    0.000
 RMSDP=7.90D-05 MaxDP=3.18D-03 DE=-2.58D-04 OVMax= 9.06D-03

 Cycle   7  Pass 0  IDiag  1:
 RMSU=  2.81D-05    CP:  9.68D-01  1.41D+00  9.01D-01  8.73D-01  1.89D+00
                    CP:  1.60D+00
 E= -680.813557585506     Delta-E=       -0.000139070412 Rises=F Damp=F
 DIIS: error= 1.48D-04 at cycle   7 NSaved=   7.
 NSaved= 7 IEnMin= 7 EnMin= -680.813557585506     IErMin= 7 ErrMin= 1.48D-04
 ErrMax= 1.48D-04  0.00D+00 EMaxC= 1.00D-01 BMatC= 1.28D-05 BMatP= 9.57D-05
 IDIUse=3 WtCom= 9.99D-01 WtEn= 1.48D-03
 Coeff-Com: -0.415D-02 0.864D-02 0.120D-01 0.856D-03-0.182D+00-0.828D-01
 Coeff-Com:  0.125D+01
 Coeff-En:   0.000D+00 0.000D+00 0.000D+00 0.000D+00 0.000D+00 0.000D+00
 Coeff-En:   0.100D+01
 Coeff:     -0.414D-02 0.863D-02 0.120D-01 0.855D-03-0.182D+00-0.827D-01
 Coeff:      0.125D+01
 Gap=     0.312 Goal=   None    Shift=    0.000
 Gap=     0.261 Goal=   None    Shift=    0.000
 RMSDP=3.35D-05 MaxDP=1.18D-03 DE=-1.39D-04 OVMax= 3.94D-03

 Cycle   8  Pass 0  IDiag  1:
 RMSU=  1.17D-05    CP:  9.68D-01  1.41D+00  9.01D-01  8.96D-01  2.05D+00
                    CP:  1.99D+00  1.47D+00
 E= -680.813578209328     Delta-E=       -0.000020623822 Rises=F Damp=F
 DIIS: error= 5.38D-05 at cycle   8 NSaved=   8.
 NSaved= 8 IEnMin= 8 EnMin= -680.813578209328     IErMin= 8 ErrMin= 5.38D-05
 ErrMax= 5.38D-05  0.00D+00 EMaxC= 1.00D-01 BMatC= 3.23D-06 BMatP= 1.28D-05
 IDIUse=1 WtCom= 1.00D+00 WtEn= 0.00D+00
 Coeff-Com: -0.581D-02 0.115D-01 0.284D-01 0.251D-01-0.923D-01-0.208D+00
 Coeff-Com:  0.450D+00 0.792D+00
 Coeff:     -0.581D-02 0.115D-01 0.284D-01 0.251D-01-0.923D-01-0.208D+00
 Coeff:      0.450D+00 0.792D+00
 Gap=     0.312 Goal=   None    Shift=    0.000
 Gap=     0.261 Goal=   None    Shift=    0.000
 RMSDP=1.01D-05 MaxDP=3.49D-04 DE=-2.06D-05 OVMax= 1.11D-03

 Cycle   9  Pass 0  IDiag  1:
 RMSU=  5.97D-06    CP:  9.68D-01  1.41D+00  9.01D-01  8.99D-01  2.08D+00
                    CP:  2.08D+00  1.66D+00  1.14D+00
 E= -680.813580800434     Delta-E=       -0.000002591107 Rises=F Damp=F
 DIIS: error= 6.90D-05 at cycle   9 NSaved=   9.
 NSaved= 9 IEnMin= 9 EnMin= -680.813580800434     IErMin= 8 ErrMin= 5.38D-05
 ErrMax= 6.90D-05  0.00D+00 EMaxC= 1.00D-01 BMatC= 6.50D-07 BMatP= 3.23D-06
 IDIUse=1 WtCom= 1.00D+00 WtEn= 0.00D+00
 Coeff-Com: -0.549D-03 0.979D-03 0.435D-02 0.491D-02 0.104D-01-0.294D-01
 Coeff-Com: -0.133D+00 0.194D+00 0.948D+00
 Coeff:     -0.549D-03 0.979D-03 0.435D-02 0.491D-02 0.104D-01-0.294D-01
 Coeff:     -0.133D+00 0.194D+00 0.948D+00
 Gap=     0.312 Goal=   None    Shift=    0.000
 Gap=     0.261 Goal=   None    Shift=    0.000
 RMSDP=5.25D-06 MaxDP=1.59D-04 DE=-2.59D-06 OVMax= 5.74D-04

 Initial convergence to 1.0D-05 achieved.  Increase integral accuracy.
 Cycle  10  Pass 1  IDiag  1:
 E= -680.813587788849     Delta-E=       -0.000006988414 Rises=F Damp=F
 DIIS: error= 1.33D-04 at cycle   1 NSaved=   1.
 NSaved= 1 IEnMin= 1 EnMin= -680.813587788849     IErMin= 1 ErrMin= 1.33D-04
 ErrMax= 1.33D-04  0.00D+00 EMaxC= 1.00D-01 BMatC= 3.13D-06 BMatP= 3.13D-06
 IDIUse=3 WtCom= 9.99D-01 WtEn= 1.33D-03
 Coeff-Com:  0.100D+01
 Coeff-En:   0.100D+01
 Coeff:      0.100D+01
 Gap=     0.312 Goal=   None    Shift=    0.000
 Gap=     0.261 Goal=   None    Shift=    0.000
 RMSDP=5.25D-06 MaxDP=1.59D-04 DE=-6.99D-06 OVMax= 3.31D-04

 Cycle  11  Pass 1  IDiag  1:
 RMSU=  6.96D-05    CP:  1.00D+00
 E= -680.813588806951     Delta-E=       -0.000001018103 Rises=F Damp=F
 DIIS: error= 3.24D-05 at cycle   2 NSaved=   2.
 NSaved= 2 IEnMin= 2 EnMin= -680.813588806951     IErMin= 2 ErrMin= 3.24D-05
 ErrMax= 3.24D-05  0.00D+00 EMaxC= 1.00D-01 BMatC= 1.24D-07 BMatP= 3.13D-06
 IDIUse=1 WtCom= 1.00D+00 WtEn= 0.00D+00
 Coeff-Com: -0.443D-01 0.104D+01
 Coeff:     -0.443D-01 0.104D+01
 Gap=     0.312 Goal=   None    Shift=    0.000
 Gap=     0.261 Goal=   None    Shift=    0.000
 RMSDP=5.68D-06 MaxDP=1.32D-04 DE=-1.02D-06 OVMax= 3.18D-04

 Cycle  12  Pass 1  IDiag  1:
 RMSU=  2.13D-06    CP:  1.00D+00  1.08D+00
 E= -680.813588920328     Delta-E=       -0.000000113377 Rises=F Damp=F
 DIIS: error= 1.33D-05 at cycle   3 NSaved=   3.
 NSaved= 3 IEnMin= 3 EnMin= -680.813588920328     IErMin= 3 ErrMin= 1.33D-05
 ErrMax= 1.33D-05  0.00D+00 EMaxC= 1.00D-01 BMatC= 1.12D-07 BMatP= 1.24D-07
 IDIUse=1 WtCom= 1.00D+00 WtEn= 0.00D+00
 Coeff-Com: -0.495D-01 0.520D+00 0.530D+00
 Coeff:     -0.495D-01 0.520D+00 0.530D+00
 Gap=     0.312 Goal=   None    Shift=    0.000
 Gap=     0.261 Goal=   None    Shift=    0.000
 RMSDP=1.03D-06 MaxDP=4.01D-05 DE=-1.13D-07 OVMax= 1.08D-04

 Cycle  13  Pass 1  IDiag  1:
 RMSU=  9.89D-07    CP:  1.00D+00  1.08D+00  1.01D+00
 E= -680.813588969620     Delta-E=       -0.000000049292 Rises=F Damp=F
 DIIS: error= 1.29D-05 at cycle   4 NSaved=   4.
 NSaved= 4 IEnMin= 4 EnMin= -680.813588969620     IErMin= 4 ErrMin= 1.29D-05
 ErrMax= 1.29D-05  0.00D+00 EMaxC= 1.00D-01 BMatC= 2.06D-08 BMatP= 1.12D-07
 IDIUse=1 WtCom= 1.00D+00 WtEn= 0.00D+00
 Coeff-Com:  0.362D-01-0.634D+00-0.309D+00 0.191D+01
 Coeff:      0.362D-01-0.634D+00-0.309D+00 0.191D+01
 Gap=     0.312 Goal=   None    Shift=    0.000
 Gap=     0.261 Goal=   None    Shift=    0.000
 RMSDP=1.88D-06 MaxDP=5.60D-05 DE=-4.93D-08 OVMax= 2.48D-04

 Cycle  14  Pass 1  IDiag  1:
 RMSU=  6.61D-07    CP:  1.00D+00  1.08D+00  1.62D+00  2.21D+00
 E= -680.813589025448     Delta-E=       -0.000000055827 Rises=F Damp=F
 DIIS: error= 3.43D-06 at cycle   5 NSaved=   5.
 NSaved= 5 IEnMin= 5 EnMin= -680.813589025448     IErMin= 5 ErrMin= 3.43D-06
 ErrMax= 3.43D-06  0.00D+00 EMaxC= 1.00D-01 BMatC= 5.45D-09 BMatP= 2.06D-08
 IDIUse=1 WtCom= 1.00D+00 WtEn= 0.00D+00
 Coeff-Com:  0.245D-01-0.354D+00-0.239D+00 0.738D+00 0.831D+00
 Coeff:      0.245D-01-0.354D+00-0.239D+00 0.738D+00 0.831D+00
 Gap=     0.312 Goal=   None    Shift=    0.000
 Gap=     0.261 Goal=   None    Shift=    0.000
 RMSDP=6.72D-07 MaxDP=2.14D-05 DE=-5.58D-08 OVMax= 8.17D-05

 Cycle  15  Pass 1  IDiag  1:
 RMSU=  2.40D-07    CP:  1.00D+00  1.08D+00  1.79D+00  2.66D+00  1.36D+00
 E= -680.813589032612     Delta-E=       -0.000000007165 Rises=F Damp=F
 DIIS: error= 1.07D-06 at cycle   6 NSaved=   6.
 NSaved= 6 IEnMin= 6 EnMin= -680.813589032612     IErMin= 6 ErrMin= 1.07D-06
 ErrMax= 1.07D-06  0.00D+00 EMaxC= 1.00D-01 BMatC= 1.16D-09 BMatP= 5.45D-09
 IDIUse=1 WtCom= 1.00D+00 WtEn= 0.00D+00
 Coeff-Com: -0.114D-03 0.290D-01-0.108D-01-0.213D+00 0.325D+00 0.870D+00
 Coeff:     -0.114D-03 0.290D-01-0.108D-01-0.213D+00 0.325D+00 0.870D+00
 Gap=     0.312 Goal=   None    Shift=    0.000
 Gap=     0.261 Goal=   None    Shift=    0.000
 RMSDP=2.77D-07 MaxDP=1.00D-05 DE=-7.16D-09 OVMax= 3.11D-05

 Cycle  16  Pass 1  IDiag  1:
 RMSU=  9.41D-08    CP:  1.00D+00  1.08D+00  1.85D+00  2.83D+00  1.60D+00
                    CP:  1.09D+00
 E= -680.813589033794     Delta-E=       -0.000000001182 Rises=F Damp=F
 DIIS: error= 5.22D-07 at cycle   7 NSaved=   7.
 NSaved= 7 IEnMin= 7 EnMin= -680.813589033794     IErMin= 7 ErrMin= 5.22D-07
 ErrMax= 5.22D-07  0.00D+00 EMaxC= 1.00D-01 BMatC= 2.30D-10 BMatP= 1.16D-09
 IDIUse=1 WtCom= 1.00D+00 WtEn= 0.00D+00
 Coeff-Com: -0.361D-02 0.621D-01 0.337D-01-0.187D+00-0.252D-01 0.309D+00
 Coeff-Com:  0.811D+00
 Coeff:     -0.361D-02 0.621D-01 0.337D-01-0.187D+00-0.252D-01 0.309D+00
 Coeff:      0.811D+00
 Gap=     0.312 Goal=   None    Shift=    0.000
 Gap=     0.261 Goal=   None    Shift=    0.000
 RMSDP=9.31D-08 MaxDP=2.92D-06 DE=-1.18D-09 OVMax= 1.11D-05

 Cycle  17  Pass 1  IDiag  1:
 RMSU=  4.78D-08    CP:  1.00D+00  1.08D+00  1.86D+00  2.86D+00  1.68D+00
                    CP:  1.23D+00  1.28D+00
 E= -680.813589033988     Delta-E=       -0.000000000193 Rises=F Damp=F
 DIIS: error= 3.61D-07 at cycle   8 NSaved=   8.
 NSaved= 8 IEnMin= 8 EnMin= -680.813589033988     IErMin= 8 ErrMin= 3.61D-07
 ErrMax= 3.61D-07  0.00D+00 EMaxC= 1.00D-01 BMatC= 5.11D-11 BMatP= 2.30D-10
 IDIUse=1 WtCom= 1.00D+00 WtEn= 0.00D+00
 Coeff-Com: -0.827D-03 0.543D-02 0.141D-01 0.254D-01-0.115D+00-0.184D+00
 Coeff-Com:  0.173D+00 0.108D+01
 Coeff:     -0.827D-03 0.543D-02 0.141D-01 0.254D-01-0.115D+00-0.184D+00
 Coeff:      0.173D+00 0.108D+01
 Gap=     0.312 Goal=   None    Shift=    0.000
 Gap=     0.261 Goal=   None    Shift=    0.000
 RMSDP=5.49D-08 MaxDP=1.87D-06 DE=-1.93D-10 OVMax= 5.70D-06

 Cycle  18  Pass 1  IDiag  1:
 RMSU=  2.12D-08    CP:  1.00D+00  1.08D+00  1.86D+00  2.86D+00  1.70D+00
                    CP:  1.30D+00  1.70D+00  1.42D+00
 E= -680.813589034052     Delta-E=       -0.000000000064 Rises=F Damp=F
 DIIS: error= 1.33D-07 at cycle   9 NSaved=   9.
 NSaved= 9 IEnMin= 9 EnMin= -680.813589034052     IErMin= 9 ErrMin= 1.33D-07
 ErrMax= 1.33D-07  0.00D+00 EMaxC= 1.00D-01 BMatC= 7.67D-12 BMatP= 5.11D-11
 IDIUse=1 WtCom= 1.00D+00 WtEn= 0.00D+00
 Coeff-Com:  0.745D-03-0.140D-01-0.501D-02 0.444D-01-0.105D-01-0.848D-01
 Coeff-Com: -0.171D+00 0.104D+00 0.114D+01
 Coeff:      0.745D-03-0.140D-01-0.501D-02 0.444D-01-0.105D-01-0.848D-01
 Coeff:     -0.171D+00 0.104D+00 0.114D+01
 Gap=     0.312 Goal=   None    Shift=    0.000
 Gap=     0.261 Goal=   None    Shift=    0.000
 RMSDP=2.79D-08 MaxDP=8.42D-07 DE=-6.37D-11 OVMax= 3.37D-06

 Cycle  19  Pass 1  IDiag  1:
 RMSU=  1.16D-08    CP:  1.00D+00  1.08D+00  1.87D+00  2.86D+00  1.70D+00
                    CP:  1.34D+00  1.86D+00  1.71D+00  1.38D+00
 E= -680.813589034062     Delta-E=       -0.000000000010 Rises=F Damp=F
 DIIS: error= 3.91D-08 at cycle  10 NSaved=  10.
 NSaved=10 IEnMin=10 EnMin= -680.813589034062     IErMin=10 ErrMin= 3.91D-08
 ErrMax= 3.91D-08  0.00D+00 EMaxC= 1.00D-01 BMatC= 1.26D-12 BMatP= 7.67D-12
 IDIUse=1 WtCom= 1.00D+00 WtEn= 0.00D+00
 Coeff-Com:  0.365D-03-0.559D-02-0.324D-02 0.124D-01 0.101D-01-0.618D-02
 Coeff-Com: -0.768D-01-0.955D-01 0.393D+00 0.772D+00
 Coeff:      0.365D-03-0.559D-02-0.324D-02 0.124D-01 0.101D-01-0.618D-02
 Coeff:     -0.768D-01-0.955D-01 0.393D+00 0.772D+00
 Gap=     0.312 Goal=   None    Shift=    0.000
 Gap=     0.261 Goal=   None    Shift=    0.000
 RMSDP=5.98D-09 MaxDP=2.52D-07 DE=-1.00D-11 OVMax= 6.95D-07

 SCF Done:  E(UwB97XD) =  -680.813589034     A.U. after   19 cycles
            NFock= 19  Conv=0.60D-08     -V/T= 2.0069
 <Sx>= 0.0000 <Sy>= 0.0000 <Sz>= 0.5000 <S**2>= 0.7876 S= 0.5186
 <L.S>=  0.00000000000    
 KE= 6.761581202003D+02 PE=-3.339329163493D+03 EE= 1.117033736407D+03
 Annihilation of the first spin contaminant:
 S**2 before annihilation     0.7876,   after     0.7510
 Leave Link  502 at Tue May  6 19:27:00 2025, MaxMem=   524288000 cpu:             244.1 elap:              61.3
 (Enter /usr/license/gaussian16_new/rev_c01/avx2/g16/l601.exe)
 Copying SCF densities to generalized density rwf, IOpCl= 1 IROHF=0.

 **********************************************************************

            Population analysis using the SCF Density.

 **********************************************************************

 Alpha  occ. eigenvalues --  -24.61600 -24.61561 -14.31682 -14.31279 -10.17768
 Alpha  occ. eigenvalues --  -10.17666 -10.16591 -10.16368 -10.14211 -10.14065
 Alpha  occ. eigenvalues --  -10.13838 -10.13586 -10.13453  -6.78575  -1.10329
 Alpha  occ. eigenvalues --   -1.06864  -0.92509  -0.90809  -0.75195  -0.73661
 Alpha  occ. eigenvalues --   -0.72369  -0.67302  -0.62523  -0.56103  -0.54198
 Alpha  occ. eigenvalues --   -0.53572  -0.52446  -0.49676  -0.47253  -0.45165
 Alpha  occ. eigenvalues --   -0.42249  -0.40413  -0.39637  -0.37804  -0.37676
 Alpha  occ. eigenvalues --   -0.36611  -0.35759  -0.34841  -0.34367  -0.33736
 Alpha  occ. eigenvalues --   -0.32142  -0.31492  -0.30670  -0.30035  -0.27718
 Alpha  occ. eigenvalues --   -0.24331  -0.20381  -0.19182  -0.14932  -0.06958
 Alpha virt. eigenvalues --    0.24220   0.25590   0.28148   0.29299   0.30124
 Alpha virt. eigenvalues --    0.30914   0.32848   0.32979   0.33376   0.34291
 Alpha virt. eigenvalues --    0.36553   0.38976   0.41203   0.41609   0.44038
 Alpha virt. eigenvalues --    0.44336   0.45283   0.45459   0.48626   0.51459
 Alpha virt. eigenvalues --    0.51912   0.55423   0.55948   0.56975   0.59915
 Alpha virt. eigenvalues --    0.61290   0.62070   0.64265   0.64609   0.65542
 Alpha virt. eigenvalues --    0.65828   0.66029   0.66909   0.67798   0.69233
 Alpha virt. eigenvalues --    0.70665   0.70800   0.71341   0.74499   0.75125
 Alpha virt. eigenvalues --    0.75594   0.76200   0.77468   0.80901   0.81368
 Alpha virt. eigenvalues --    0.82762   0.83828   0.88811   0.90175   0.90995
 Alpha virt. eigenvalues --    0.91574   0.91895   0.92709   0.94436   0.94613
 Alpha virt. eigenvalues --    0.95435   0.96265   0.96913   0.97853   1.00131
 Alpha virt. eigenvalues --    1.00859   1.02342   1.05372   1.05674   1.12418
 Alpha virt. eigenvalues --    1.12873   1.13581   1.18307   1.21000   1.21973
 Alpha virt. eigenvalues --    1.25536   1.28345   1.31652   1.32500   1.37068
 Alpha virt. eigenvalues --    1.38849   1.39620   1.40389   1.40883   1.43063
 Alpha virt. eigenvalues --    1.44171   1.46802   1.47420   1.49001   1.51506
 Alpha virt. eigenvalues --    1.52270   1.52506   1.55456   1.55938   1.59372
 Alpha virt. eigenvalues --    1.60457   1.61810   1.63161   1.64101   1.70698
 Alpha virt. eigenvalues --    1.75634   1.76879   1.77268   1.79650   1.85771
 Alpha virt. eigenvalues --    1.86261   1.89019   1.89138   1.90200   1.91341
 Alpha virt. eigenvalues --    1.92589   1.96024   1.96566   1.96930   1.98829
 Alpha virt. eigenvalues --    2.02011   2.03659   2.05697   2.08729   2.09663
 Alpha virt. eigenvalues --    2.11096   2.12426   2.15883   2.17118   2.19036
 Alpha virt. eigenvalues --    2.22657   2.22796   2.24117   2.26071   2.26881
 Alpha virt. eigenvalues --    2.28007   2.30056   2.32129   2.34038   2.38981
 Alpha virt. eigenvalues --    2.40018   2.41015   2.45535   2.45629   2.50274
 Alpha virt. eigenvalues --    2.52533   2.53558   2.54577   2.56953   2.59364
 Alpha virt. eigenvalues --    2.60419   2.62317   2.68892   2.73845   2.82016
 Alpha virt. eigenvalues --    2.83807   2.85822   2.87296   2.90451   2.92504
 Alpha virt. eigenvalues --    2.95742   2.96560   2.98313   2.98715   3.03017
 Alpha virt. eigenvalues --    3.05159   3.17116   3.17837   3.24734   3.27118
 Alpha virt. eigenvalues --    3.29349   3.30536   3.32440   3.33813   3.34198
 Alpha virt. eigenvalues --    3.36660   3.38697   3.40041   3.41167   3.55530
 Alpha virt. eigenvalues --    3.57060   3.62155   3.66858   3.69758   3.78596
 Alpha virt. eigenvalues --    3.80612   3.90357   3.98352   3.99017   4.00095
 Alpha virt. eigenvalues --    4.07725
  Beta  occ. eigenvalues --  -24.61589 -24.61553 -14.31571 -14.31182 -10.17962
  Beta  occ. eigenvalues --  -10.17861 -10.16382 -10.16132 -10.13961 -10.13897
  Beta  occ. eigenvalues --  -10.13531 -10.13425 -10.13300  -6.78581  -1.10303
  Beta  occ. eigenvalues --   -1.06838  -0.92219  -0.90533  -0.74275  -0.73242
  Beta  occ. eigenvalues --   -0.72013  -0.66961  -0.61334  -0.56049  -0.53865
  Beta  occ. eigenvalues --   -0.53253  -0.52115  -0.49574  -0.46753  -0.45066
  Beta  occ. eigenvalues --   -0.42029  -0.40239  -0.39516  -0.37563  -0.37434
  Beta  occ. eigenvalues --   -0.35850  -0.35137  -0.34578  -0.34113  -0.33508
  Beta  occ. eigenvalues --   -0.31928  -0.31290  -0.30531  -0.29964  -0.27571
  Beta  occ. eigenvalues --   -0.21156  -0.19185  -0.18059  -0.12983
  Beta virt. eigenvalues --    0.13138   0.25593   0.26962   0.29362   0.29460
  Beta virt. eigenvalues --    0.30172   0.30995   0.32891   0.33053   0.34342
  Beta virt. eigenvalues --    0.34911   0.36705   0.38987   0.41293   0.41578
  Beta virt. eigenvalues --    0.44237   0.44497   0.45391   0.45661   0.48780
  Beta virt. eigenvalues --    0.51619   0.52229   0.55576   0.56227   0.57126
  Beta virt. eigenvalues --    0.59939   0.61478   0.62340   0.64386   0.64791
  Beta virt. eigenvalues --    0.65764   0.66060   0.66774   0.67116   0.68050
  Beta virt. eigenvalues --    0.69345   0.71073   0.71681   0.72335   0.75067
  Beta virt. eigenvalues --    0.75296   0.75886   0.77064   0.77840   0.80838
  Beta virt. eigenvalues --    0.81479   0.83583   0.84114   0.89698   0.90369
  Beta virt. eigenvalues --    0.91274   0.91678   0.91991   0.92799   0.94699
  Beta virt. eigenvalues --    0.94972   0.95691   0.96490   0.97179   0.98033
  Beta virt. eigenvalues --    1.00304   1.01218   1.02567   1.05659   1.05909
  Beta virt. eigenvalues --    1.12809   1.13095   1.13866   1.18636   1.21047
  Beta virt. eigenvalues --    1.22068   1.25712   1.28530   1.31914   1.32863
  Beta virt. eigenvalues --    1.37112   1.38946   1.39719   1.40499   1.41066
  Beta virt. eigenvalues --    1.43591   1.44465   1.47083   1.47732   1.49382
  Beta virt. eigenvalues --    1.51917   1.52567   1.52972   1.55693   1.56361
  Beta virt. eigenvalues --    1.59647   1.60726   1.62066   1.63339   1.64437
  Beta virt. eigenvalues --    1.70814   1.75918   1.76986   1.77354   1.80035
  Beta virt. eigenvalues --    1.85914   1.86441   1.89222   1.89395   1.90340
  Beta virt. eigenvalues --    1.91545   1.92853   1.96189   1.96734   1.97113
  Beta virt. eigenvalues --    1.99094   2.02201   2.03980   2.06161   2.08848
  Beta virt. eigenvalues --    2.09851   2.11286   2.12605   2.16926   2.17452
  Beta virt. eigenvalues --    2.19226   2.22989   2.23146   2.24423   2.26326
  Beta virt. eigenvalues --    2.26989   2.28474   2.30560   2.33109   2.34403
  Beta virt. eigenvalues --    2.39248   2.40722   2.42242   2.45915   2.46354
  Beta virt. eigenvalues --    2.50423   2.52795   2.53957   2.54930   2.57380
  Beta virt. eigenvalues --    2.59773   2.60666   2.62811   2.69833   2.74077
  Beta virt. eigenvalues --    2.82515   2.84178   2.86403   2.87826   2.90973
  Beta virt. eigenvalues --    2.93103   2.96252   2.96962   2.98814   2.99108
  Beta virt. eigenvalues --    3.03410   3.05447   3.17307   3.18023   3.24980
  Beta virt. eigenvalues --    3.27310   3.29516   3.30645   3.32512   3.33824
  Beta virt. eigenvalues --    3.34205   3.36765   3.38744   3.40130   3.41228
  Beta virt. eigenvalues --    3.55789   3.57199   3.62291   3.67057   3.69830
  Beta virt. eigenvalues --    3.78794   3.80797   3.90591   3.98430   3.99057
  Beta virt. eigenvalues --    4.00209   4.07899
          Condensed to atoms (all electrons):
               1          2          3          4          5          6
     1  N    6.404060  -0.041040   0.415237  -0.054400  -0.096331   0.438310
     2  N   -0.041040   6.402729  -0.000040  -0.000018  -0.000477  -0.012032
     3  C    0.415237  -0.000040   4.841377   0.385028  -0.002751  -0.157345
     4  C   -0.054400  -0.000018   0.385028   5.027465   0.309312   0.018767
     5  C   -0.096331  -0.000477  -0.002751   0.309312   5.179359   0.360516
     6  C    0.438310  -0.012032  -0.157345   0.018767   0.360516   5.063929
     7  C   -0.065712  -0.067849   0.011279   0.020316  -0.123401   0.302719
     8  C   -0.015333   0.441180   0.001099  -0.001331   0.016177   0.030996
     9  C   -0.000544  -0.098718   0.000038   0.000003  -0.000077   0.013698
    10  C    0.000011  -0.054087  -0.000003  -0.000000   0.000002  -0.001075
    11  C   -0.000088   0.421465   0.000026  -0.000002   0.000035   0.000962
    12  B    0.304705   0.299345  -0.015181   0.000443   0.002318  -0.047934
    13  F   -0.037193  -0.036476  -0.002184  -0.000162  -0.000029  -0.002885
    14  F   -0.034774  -0.034805   0.001331   0.000237  -0.000075  -0.002877
    15  H    0.009057   0.008198  -0.000836   0.000973  -0.030011  -0.047023
    16  H    0.000246  -0.044899   0.000004   0.000000  -0.000001   0.000067
    17  H    0.007474  -0.000014   0.019695  -0.089935   0.473685  -0.073654
    18  H    0.006898   0.000004  -0.084818   0.469046  -0.082501   0.019689
    19  H    0.000004   0.007223   0.000000   0.000000  -0.000000   0.000012
    20  H   -0.040300   0.000202   0.443905  -0.088184   0.016453   0.003804
    21  H   -0.000018   0.008027  -0.000000  -0.000000   0.000009  -0.000061
               7          8          9         10         11         12
     1  N   -0.065712  -0.015333  -0.000544   0.000011  -0.000088   0.304705
     2  N   -0.067849   0.441180  -0.098718  -0.054087   0.421465   0.299345
     3  C    0.011279   0.001099   0.000038  -0.000003   0.000026  -0.015181
     4  C    0.020316  -0.001331   0.000003  -0.000000  -0.000002   0.000443
     5  C   -0.123401   0.016177  -0.000077   0.000002   0.000035   0.002318
     6  C    0.302719   0.030996   0.013698  -0.001075   0.000962  -0.047934
     7  C    5.328130   0.258758  -0.128883   0.023783   0.009463  -0.010307
     8  C    0.258758   5.063140   0.407786   0.010123  -0.151451  -0.047228
     9  C   -0.128883   0.407786   5.207879   0.276919  -0.009290   0.002749
    10  C    0.023783   0.010123   0.276919   5.042232   0.407819   0.000126
    11  C    0.009463  -0.151451  -0.009290   0.407819   4.750941  -0.015455
    12  B   -0.010307  -0.047228   0.002749   0.000126  -0.015455   3.415790
    13  F    0.001276  -0.002834   0.000003  -0.000237  -0.001538   0.466022
    14  F    0.001400  -0.002771  -0.000091   0.000238   0.000980   0.446961
    15  H    0.443170  -0.071857  -0.025046   0.000509  -0.000588   0.003074
    16  H   -0.001455   0.001061   0.023715  -0.099907   0.434605  -0.000862
    17  H   -0.017115  -0.000067  -0.000002   0.000000  -0.000001   0.000428
    18  H   -0.000827   0.000012  -0.000000   0.000000   0.000000   0.000268
    19  H   -0.000769   0.018326  -0.095407   0.473131  -0.074517   0.000287
    20  H   -0.001000   0.000042  -0.000001   0.000000   0.000004  -0.000622
    21  H   -0.020900  -0.044462   0.451958  -0.092515   0.015405   0.000364
              13         14         15         16         17         18
     1  N   -0.037193  -0.034774   0.009057   0.000246   0.007474   0.006898
     2  N   -0.036476  -0.034805   0.008198  -0.044899  -0.000014   0.000004
     3  C   -0.002184   0.001331  -0.000836   0.000004   0.019695  -0.084818
     4  C   -0.000162   0.000237   0.000973   0.000000  -0.089935   0.469046
     5  C   -0.000029  -0.000075  -0.030011  -0.000001   0.473685  -0.082501
     6  C   -0.002885  -0.002877  -0.047023   0.000067  -0.073654   0.019689
     7  C    0.001276   0.001400   0.443170  -0.001455  -0.017115  -0.000827
     8  C   -0.002834  -0.002771  -0.071857   0.001061  -0.000067   0.000012
     9  C    0.000003  -0.000091  -0.025046   0.023715  -0.000002  -0.000000
    10  C   -0.000237   0.000238   0.000509  -0.099907   0.000000   0.000000
    11  C   -0.001538   0.000980  -0.000588   0.434605  -0.000001   0.000000
    12  B    0.466022   0.446961   0.003074  -0.000862   0.000428   0.000268
    13  F    8.890257  -0.027066   0.000001  -0.000010   0.000002   0.000002
    14  F   -0.027066   8.902197   0.000007   0.002069   0.000001   0.000001
    15  H    0.000001   0.000007   0.860961   0.000024   0.002660   0.000024
    16  H   -0.000010   0.002069   0.000024   0.857303  -0.000000  -0.000000
    17  H    0.000002   0.000001   0.002660  -0.000000   0.813372  -0.012648
    18  H    0.000002   0.000001   0.000024  -0.000000  -0.012648   0.804133
    19  H    0.000001   0.000001   0.000009  -0.011016  -0.000000  -0.000000
    20  H    0.000532   0.000943   0.000023   0.000001  -0.000447  -0.007048
    21  H    0.000002   0.000002   0.003514  -0.000502  -0.000002  -0.000000
              19         20         21
     1  N    0.000004  -0.040300  -0.000018
     2  N    0.007223   0.000202   0.008027
     3  C    0.000000   0.443905  -0.000000
     4  C    0.000000  -0.088184  -0.000000
     5  C   -0.000000   0.016453   0.000009
     6  C    0.000012   0.003804  -0.000061
     7  C   -0.000769  -0.001000  -0.020900
     8  C    0.018326   0.000042  -0.044462
     9  C   -0.095407  -0.000001   0.451958
    10  C    0.473131   0.000000  -0.092515
    11  C   -0.074517   0.000004   0.015405
    12  B    0.000287  -0.000622   0.000364
    13  F    0.000001   0.000532   0.000002
    14  F    0.000001   0.000943   0.000002
    15  H    0.000009   0.000023   0.003514
    16  H   -0.011016   0.000001  -0.000502
    17  H   -0.000000  -0.000447  -0.000002
    18  H   -0.000000  -0.007048  -0.000000
    19  H    0.809354  -0.000000  -0.008342
    20  H   -0.000000   0.748183  -0.000000
    21  H   -0.008342  -0.000000   0.774714
          Atomic-Atomic Spin Densities.
               1          2          3          4          5          6
     1  N    0.075971   0.001814  -0.050177  -0.003762   0.007929   0.029370
     2  N    0.001814   0.089559  -0.000217  -0.000006   0.000087   0.001274
     3  C   -0.050177  -0.000217   0.216996   0.030303  -0.021600  -0.002304
     4  C   -0.003762  -0.000006   0.030303  -0.062520  -0.039400   0.001816
     5  C    0.007929   0.000087  -0.021600  -0.039400   0.307622   0.013520
     6  C    0.029370   0.001274  -0.002304   0.001816   0.013520  -0.179769
     7  C   -0.011708  -0.013030   0.003000   0.001865  -0.026517  -0.048794
     8  C    0.001297   0.031865  -0.000263  -0.000067   0.000871   0.005879
     9  C    0.000082   0.008740  -0.000010  -0.000001   0.000039   0.000790
    10  C   -0.000006  -0.004914   0.000001   0.000000  -0.000001  -0.000073
    11  C   -0.000224  -0.057490   0.000034   0.000001  -0.000012  -0.000273
    12  B    0.003203   0.003490  -0.002498  -0.000143   0.000348   0.001986
    13  F   -0.000907  -0.001072   0.000374   0.000004  -0.000013  -0.000168
    14  F   -0.000628  -0.000620   0.000420   0.000006  -0.000007  -0.000077
    15  H   -0.000362  -0.000314   0.000025  -0.000033   0.000821  -0.003953
    16  H   -0.000002  -0.000384  -0.000001  -0.000000   0.000000   0.000005
    17  H   -0.000146   0.000000  -0.000096  -0.000312   0.006147  -0.000408
    18  H    0.000036  -0.000000  -0.000496   0.000487  -0.000555  -0.000009
    19  H   -0.000000   0.000041   0.000000  -0.000000   0.000000   0.000001
    20  H   -0.000325  -0.000001   0.003693   0.000104  -0.000138  -0.000132
    21  H    0.000000  -0.000154  -0.000000   0.000000  -0.000000   0.000009
               7          8          9         10         11         12
     1  N   -0.011708   0.001297   0.000082  -0.000006  -0.000224   0.003203
     2  N   -0.013030   0.031865   0.008740  -0.004914  -0.057490   0.003490
     3  C    0.003000  -0.000263  -0.000010   0.000001   0.000034  -0.002498
     4  C    0.001865  -0.000067  -0.000001   0.000000   0.000001  -0.000143
     5  C   -0.026517   0.000871   0.000039  -0.000001  -0.000012   0.000348
     6  C   -0.048794   0.005879   0.000790  -0.000073  -0.000273   0.001986
     7  C    0.731889  -0.054888  -0.025585   0.001980   0.003400  -0.002295
     8  C   -0.054888  -0.180073   0.017667   0.002040  -0.004292   0.002041
     9  C   -0.025585   0.017667   0.295762  -0.042086  -0.024058   0.000319
    10  C    0.001980   0.002040  -0.042086  -0.063161   0.033496  -0.000152
    11  C    0.003400  -0.004292  -0.024058   0.033496   0.248184  -0.002745
    12  B   -0.002295   0.002041   0.000319  -0.000152  -0.002745  -0.001620
    13  F    0.000178  -0.000180  -0.000013   0.000005   0.000498  -0.000988
    14  F    0.000076  -0.000074  -0.000007   0.000007   0.000389  -0.000931
    15  H    0.020413  -0.002409   0.000670  -0.000010   0.000019  -0.000129
    16  H    0.000003  -0.000072  -0.000174  -0.000093   0.006416  -0.000105
    17  H    0.000001   0.000012   0.000000  -0.000000  -0.000000  -0.000008
    18  H   -0.000013   0.000001   0.000000  -0.000000  -0.000000   0.000002
    19  H   -0.000012   0.000005  -0.000416   0.000504  -0.000642   0.000002
    20  H   -0.000001   0.000005   0.000000  -0.000000  -0.000000  -0.000081
    21  H    0.000061  -0.000936   0.005067   0.000231  -0.000050  -0.000007
              13         14         15         16         17         18
     1  N   -0.000907  -0.000628  -0.000362  -0.000002  -0.000146   0.000036
     2  N   -0.001072  -0.000620  -0.000314  -0.000384   0.000000  -0.000000
     3  C    0.000374   0.000420   0.000025  -0.000001  -0.000096  -0.000496
     4  C    0.000004   0.000006  -0.000033  -0.000000  -0.000312   0.000487
     5  C   -0.000013  -0.000007   0.000821   0.000000   0.006147  -0.000555
     6  C   -0.000168  -0.000077  -0.003953   0.000005  -0.000408  -0.000009
     7  C    0.000178   0.000076   0.020413   0.000003   0.000001  -0.000013
     8  C   -0.000180  -0.000074  -0.002409  -0.000072   0.000012   0.000001
     9  C   -0.000013  -0.000007   0.000670  -0.000174   0.000000   0.000000
    10  C    0.000005   0.000007  -0.000010  -0.000093  -0.000000  -0.000000
    11  C    0.000498   0.000389   0.000019   0.006416  -0.000000  -0.000000
    12  B   -0.000988  -0.000931  -0.000129  -0.000105  -0.000008   0.000002
    13  F    0.004953  -0.000087  -0.000000   0.000014   0.000000   0.000000
    14  F   -0.000087   0.003408   0.000000  -0.000006  -0.000000  -0.000000
    15  H   -0.000000   0.000000  -0.036266  -0.000002  -0.000132  -0.000001
    16  H    0.000014  -0.000006  -0.000002  -0.013586   0.000000   0.000000
    17  H    0.000000  -0.000000  -0.000132   0.000000  -0.014838   0.000113
    18  H    0.000000  -0.000000  -0.000001   0.000000   0.000113   0.002211
    19  H    0.000000  -0.000000  -0.000000   0.000141   0.000000   0.000000
    20  H    0.000021  -0.000007  -0.000002   0.000000   0.000011   0.000101
    21  H    0.000000  -0.000000  -0.000143   0.000009   0.000000  -0.000000
              19         20         21
     1  N   -0.000000  -0.000325   0.000000
     2  N    0.000041  -0.000001  -0.000154
     3  C    0.000000   0.003693  -0.000000
     4  C   -0.000000   0.000104   0.000000
     5  C    0.000000  -0.000138  -0.000000
     6  C    0.000001  -0.000132   0.000009
     7  C   -0.000012  -0.000001   0.000061
     8  C    0.000005   0.000005  -0.000936
     9  C   -0.000416   0.000000   0.005067
    10  C    0.000504  -0.000000   0.000231
    11  C   -0.000642  -0.000000  -0.000050
    12  B    0.000002  -0.000081  -0.000007
    13  F    0.000000   0.000021   0.000000
    14  F   -0.000000  -0.000007  -0.000000
    15  H   -0.000000  -0.000002  -0.000143
    16  H    0.000141   0.000000   0.000009
    17  H    0.000000   0.000011   0.000000
    18  H    0.000000   0.000101  -0.000000
    19  H    0.002132   0.000000   0.000059
    20  H    0.000000  -0.010650  -0.000000
    21  H    0.000059  -0.000000  -0.014440
 Mulliken charges and spin densities:
               1          2
     1  N   -0.200269   0.051455
     2  N   -0.197920   0.058667
     3  C    0.144139   0.177185
     4  C    0.002441  -0.071657
     5  C   -0.022212   0.249141
     6  C    0.091416  -0.181311
     7  C    0.037924   0.580022
     8  C    0.088633  -0.181572
     9  C   -0.026690   0.236784
    10  C    0.012930  -0.072232
    11  C    0.211224   0.202650
    12  B    0.194708  -0.000312
    13  F   -0.247482   0.002621
    14  F   -0.253908   0.001862
    15  H   -0.156843  -0.021808
    16  H   -0.160444  -0.007836
    17  H   -0.123430  -0.009655
    18  H   -0.112234   0.001877
    19  H   -0.118299   0.001814
    20  H   -0.076491  -0.007404
    21  H   -0.087192  -0.010293
 Sum of Mulliken charges =  -1.00000   1.00000
 Mulliken charges and spin densities with hydrogens summed into heavy atoms:
               1          2
     1  N   -0.200269   0.051455
     2  N   -0.197920   0.058667
     3  C    0.067648   0.169782
     4  C   -0.109793  -0.069780
     5  C   -0.145642   0.239486
     6  C    0.091416  -0.181311
     7  C   -0.118919   0.558214
     8  C    0.088633  -0.181572
     9  C   -0.113882   0.226491
    10  C   -0.105369  -0.070418
    11  C    0.050780   0.194814
    12  B    0.194708  -0.000312
    13  F   -0.247482   0.002621
    14  F   -0.253908   0.001862
 Electronic spatial extent (au):  <R**2>=          38117.0360
 Charge=             -1.0000 electrons
 Dipole moment (field-independent basis, Debye):
    X=              5.9815    Y=            -14.5788    Z=            -45.9056  Tot=             48.5350
 Quadrupole moment (field-independent basis, Debye-Ang):
   XX=            -96.1265   YY=           -133.6259   ZZ=           -532.5004
   XY=             18.1747   XZ=             56.1378   YZ=           -140.3543
 Traceless Quadrupole moment (field-independent basis, Debye-Ang):
   XX=            157.9578   YY=            120.4583   ZZ=           -278.4161
   XY=             18.1747   XZ=             56.1378   YZ=           -140.3543
 Octapole moment (field-independent basis, Debye-Ang**2):
  XXX=            240.4159  YYY=          -1058.0432  ZZZ=          -6819.5042  XYY=            135.0491
  XXY=           -326.3588  XXZ=           -911.1988  XZZ=            599.8619  YZZ=          -1681.9166
  YYZ=          -1273.2167  XYZ=            165.3686
 Hexadecapole moment (field-independent basis, Debye-Ang**3):
 XXXX=          -1143.8638 YYYY=          -7293.3295 ZZZZ=         -91183.3900 XXXY=            627.8949
 XXXZ=           2110.3778 YYYX=            786.5853 YYYZ=         -10118.3337 ZZZX=           6801.8726
 ZZZY=         -22372.4611 XXYY=          -1367.1168 XXZZ=          -9156.1190 YYZZ=         -13735.5841
 XXYZ=          -3101.3172 YYXZ=           1178.8359 ZZXY=           1715.5206
 N-N= 8.653237178517D+02 E-N=-3.339329169925D+03  KE= 6.761581202003D+02
                          Isotropic Fermi Contact Couplings
        Atom                 a.u.       MegaHertz       Gauss      10(-4) cm-1
     1  N(14)              0.01285       4.15251       1.48172       1.38513
     2  N(14)              0.01488       4.80913       1.71602       1.60415
     3  C(13)              0.02582      29.03154      10.35917       9.68388
     4  C(13)             -0.01975     -22.20604      -7.92367      -7.40714
     5  C(13)              0.03748      42.13698      15.03552      14.05538
     6  C(13)             -0.05065     -56.94277     -20.31860     -18.99406
     7  C(13)              0.08505      95.61117      34.11644      31.89245
     8  C(13)             -0.05096     -57.28715     -20.44148     -19.10894
     9  C(13)              0.03634      40.85423      14.57780      13.62750
    10  C(13)             -0.02049     -23.03373      -8.21901      -7.68323
    11  C(13)              0.02758      31.00147      11.06210      10.34098
    12  B(11)             -0.00288      -4.12681      -1.47255      -1.37656
    13  F(19)              0.00530      22.31369       7.96208       7.44305
    14  F(19)              0.00245      10.32262       3.68337       3.44326
    15  H(1)              -0.00656     -29.30081     -10.45526      -9.77370
    16  H(1)              -0.00263     -11.77590      -4.20193      -3.92802
    17  H(1)              -0.00297     -13.26968      -4.73495      -4.42629
    18  H(1)               0.00050       2.25465       0.80451       0.75207
    19  H(1)               0.00050       2.22428       0.79368       0.74194
    20  H(1)              -0.00234     -10.46577      -3.73445      -3.49100
    21  H(1)              -0.00299     -13.35281      -4.76462      -4.45402
 --------------------------------------------------------
       Center         ----  Spin Dipole Couplings  ----
                      3XX-RR        3YY-RR        3ZZ-RR
 --------------------------------------------------------
     1   Atom        0.006682      0.054131     -0.060814
     2   Atom       -0.007128      0.079141     -0.072013
     3   Atom        0.030268      0.068350     -0.098618
     4   Atom       -0.003895     -0.018071      0.021966
     5   Atom        0.018229      0.104604     -0.122834
     6   Atom       -0.015257     -0.063870      0.079127
     7   Atom        0.041493      0.255476     -0.296969
     8   Atom        0.002122     -0.069734      0.067612
     9   Atom        0.000670      0.111218     -0.111888
    10   Atom        0.003267     -0.025673      0.022406
    11   Atom       -0.009173      0.120164     -0.110991
    12   Atom       -0.000952     -0.000932      0.001884
    13   Atom       -0.006431      0.019062     -0.012631
    14   Atom        0.011481     -0.004530     -0.006951
    15   Atom        0.023211      0.020487     -0.043698
    16   Atom        0.013392      0.009246     -0.022638
    17   Atom        0.011416      0.007877     -0.019293
    18   Atom        0.000403     -0.001211      0.000808
    19   Atom       -0.000505     -0.002152      0.002657
    20   Atom        0.004148      0.004167     -0.008316
    21   Atom        0.001943      0.003302     -0.005245
 --------------------------------------------------------
                        XY            XZ            YZ
 --------------------------------------------------------
     1   Atom       -0.088052     -0.002305     -0.002008
     2   Atom       -0.094413     -0.009839      0.016902
     3   Atom       -0.145189     -0.004601      0.002338
     4   Atom        0.034512     -0.001556      0.000287
     5   Atom       -0.181747      0.011150     -0.013255
     6   Atom        0.094773     -0.003871     -0.000900
     7   Atom       -0.430100     -0.022610      0.025800
     8   Atom        0.097592      0.018683     -0.005576
     9   Atom       -0.166143     -0.024810      0.032231
    10   Atom        0.034574      0.003721     -0.005268
    11   Atom       -0.152782     -0.014869      0.021379
    12   Atom        0.001929     -0.000052     -0.000014
    13   Atom        0.015555     -0.005355     -0.010197
    14   Atom        0.011393     -0.008575     -0.004302
    15   Atom        0.013599     -0.020453     -0.013826
    16   Atom        0.006583     -0.002970      0.000682
    17   Atom        0.008313      0.003672      0.001551
    18   Atom        0.003551     -0.000031      0.000473
    19   Atom        0.002430     -0.001488     -0.001686
    20   Atom        0.003178     -0.010532     -0.009788
    21   Atom        0.003691     -0.012643     -0.008341
 --------------------------------------------------------


 ---------------------------------------------------------------------------------
              Anisotropic Spin Dipole Couplings in Principal Axis System
 ---------------------------------------------------------------------------------

       Atom             a.u.   MegaHertz   Gauss  10(-4) cm-1        Axes

              Baa    -0.0639    -2.463    -0.879    -0.821  0.5595  0.4296  0.7088
     1 N(14)  Bbb    -0.0577    -2.227    -0.795    -0.743 -0.5631 -0.4305  0.7054
              Bcc     0.1216     4.690     1.673     1.564 -0.6082  0.7938 -0.0011
 
              Baa    -0.0739    -2.851    -1.017    -0.951 -0.0677 -0.1507  0.9863
     2 N(14)  Bbb    -0.0677    -2.610    -0.931    -0.871  0.8402  0.5245  0.1378
              Bcc     0.1416     5.461     1.949     1.822 -0.5380  0.8380  0.0911
 
              Baa    -0.1000   -13.416    -4.787    -4.475  0.4275  0.3572  0.8305
     3 C(13)  Bbb    -0.0958   -12.861    -4.589    -4.290  0.6183  0.5547 -0.5568
              Bcc     0.1958    26.277     9.376     8.765 -0.6595  0.7515  0.0163
 
              Baa    -0.0462    -6.204    -2.214    -2.070 -0.6321  0.7747 -0.0177
     4 C(13)  Bbb     0.0216     2.897     1.034     0.966  0.2683  0.2402  0.9329
              Bcc     0.0246     3.307     1.180     1.103  0.7270  0.5849 -0.3597
 
              Baa    -0.1255   -16.846    -6.011    -5.619  0.7634  0.5874 -0.2685
     5 C(13)  Bbb    -0.1235   -16.571    -5.913    -5.528  0.1831  0.2018  0.9621
              Bcc     0.2490    33.417    11.924    11.147 -0.6194  0.7837 -0.0465
 
              Baa    -0.1374   -18.440    -6.580    -6.151 -0.6131  0.7900 -0.0077
     6 C(13)  Bbb     0.0577     7.739     2.761     2.581  0.7783  0.6056  0.1658
              Bcc     0.0797    10.701     3.818     3.570 -0.1356 -0.0957  0.9861
 
              Baa    -0.2991   -40.140   -14.323   -13.389  0.3369  0.2187  0.9158
     7 C(13)  Bbb    -0.2939   -39.436   -14.072   -13.155  0.7125  0.5766 -0.3998
              Bcc     0.5930    79.576    28.395    26.544 -0.6155  0.7872  0.0385
 
              Baa    -0.1389   -18.644    -6.652    -6.219 -0.5740  0.8155  0.0739
     8 C(13)  Bbb     0.0573     7.695     2.746     2.567 -0.5298 -0.4388  0.7258
              Bcc     0.0816    10.948     3.907     3.652  0.6243  0.3774  0.6839
 
              Baa    -0.1197   -16.059    -5.730    -5.357  0.7748  0.5043  0.3812
     9 C(13)  Bbb    -0.1161   -15.582    -5.560    -5.198 -0.2484 -0.3116  0.9172
              Bcc     0.2358    31.641    11.290    10.554 -0.5813  0.8053  0.1161
 
              Baa    -0.0493    -6.611    -2.359    -2.205 -0.5520  0.8290  0.0896
    10 C(13)  Bbb     0.0230     3.083     1.100     1.028  0.0047 -0.1044  0.9945
              Bcc     0.0263     3.527     1.259     1.177  0.8338  0.5494  0.0537
 
              Baa    -0.1131   -15.183    -5.418    -5.064  0.2161  0.0522  0.9750
    11 C(13)  Bbb    -0.1103   -14.799    -5.281    -4.936  0.8062  0.5538 -0.2084
              Bcc     0.2234    29.982    10.698    10.001 -0.5508  0.8310  0.0776
 
              Baa    -0.0029    -0.492    -0.175    -0.164  0.7090 -0.7052  0.0057
    12 B(11)  Bbb     0.0010     0.169     0.060     0.056  0.7040  0.7083  0.0517
              Bcc     0.0019     0.323     0.115     0.108 -0.0405 -0.0326  0.9986
 
              Baa    -0.0159    -7.971    -2.844    -2.659  0.3052  0.1391  0.9421
    13 F(19)  Bbb    -0.0137    -6.877    -2.454    -2.294  0.8569 -0.4717 -0.2079
              Bcc     0.0296    14.848     5.298     4.953  0.4154  0.8707 -0.2631
 
              Baa    -0.0105    -5.282    -1.885    -1.762 -0.5424  0.7131 -0.4441
    14 F(19)  Bbb    -0.0102    -5.127    -1.829    -1.710  0.0407  0.5503  0.8340
              Bcc     0.0207    10.408     3.714     3.472  0.8391  0.4343 -0.3275
 
              Baa    -0.0508   -27.116    -9.676    -9.045  0.2396  0.1406  0.9606
    15 H(1)   Bbb     0.0083     4.452     1.589     1.485 -0.6384  0.7683  0.0468
              Bcc     0.0425    22.664     8.087     7.560  0.7315  0.6245 -0.2738
 
              Baa    -0.0229   -12.234    -4.365    -4.081  0.0885 -0.0392  0.9953
    16 H(1)   Bbb     0.0046     2.460     0.878     0.821 -0.5795  0.8107  0.0835
              Bcc     0.0183     9.774     3.488     3.260  0.8101  0.5842 -0.0490
 
              Baa    -0.0197   -10.532    -3.758    -3.513 -0.1112 -0.0223  0.9936
    17 H(1)   Bbb     0.0012     0.642     0.229     0.214 -0.6193  0.7835 -0.0517
              Bcc     0.0185     9.889     3.529     3.299  0.7773  0.6210  0.1009
 
              Baa    -0.0041    -2.175    -0.776    -0.726 -0.6196  0.7809 -0.0796
    18 H(1)   Bbb     0.0008     0.432     0.154     0.144 -0.1359 -0.0068  0.9907
              Bcc     0.0033     1.744     0.622     0.582  0.7731  0.6246  0.1103
 
              Baa    -0.0039    -2.102    -0.750    -0.701 -0.5495  0.8308  0.0884
    19 H(1)   Bbb    -0.0003    -0.177    -0.063    -0.059  0.7063  0.4054  0.5803
              Bcc     0.0043     2.279     0.813     0.760 -0.4463 -0.3814  0.8096
 
              Baa    -0.0169    -8.998    -3.211    -3.001  0.3790  0.3428  0.8596
    20 H(1)   Bbb     0.0010     0.527     0.188     0.176 -0.6869  0.7267  0.0131
              Bcc     0.0159     8.471     3.023     2.826  0.6201  0.5954 -0.5109
 
              Baa    -0.0160    -8.512    -3.037    -2.839  0.5230  0.2524  0.8141
    21 H(1)   Bbb    -0.0006    -0.310    -0.111    -0.103 -0.5773  0.8076  0.1205
              Bcc     0.0165     8.823     3.148     2.943  0.6271  0.5330 -0.5681
 

 ---------------------------------------------------------------------------------

 No NMR shielding tensors so no spin-rotation constants.
 Leave Link  601 at Tue May  6 19:27:00 2025, MaxMem=   524288000 cpu:               0.6 elap:               0.2
 (Enter /usr/license/gaussian16_new/rev_c01/avx2/g16/l9999.exe)

 Test job not archived.
 1\1\GINC-TELLURIUM3\SP\UwB97XD\def2SVP\C9H7B1F2N2(1-,2)\PITESA\06-May-
 2025\0\\#p nosym unit=AU wb97xd def2svp GFINPUT charge\\SHARC-GAUSSIAN
  job\\-1,2\N,0,-0.7993970006,3.4420070024,10.6968230076\N,0,-1.4959940
 011,3.0656410022,8.3205540059\C,0,-0.7577660005,3.5154570025,12.048621
 0086\C,0,0.2748730002,4.3340420031,12.4794030089\C,0,0.9324610007,4.78
 99370034,11.3408960081\C,0,0.2503890002,4.235771003,10.2259020073\C,0,
 0.4476960003,4.4009060031,8.8515990063\C,0,-0.4070910003,3.8457280027,
 7.9058950056\C,0,-0.4737770003,3.9439980028,6.4946440046\C,0,-1.558393
 0011,3.2530640023,6.0554650043\C,0,-2.1823780016,2.7222000019,7.217316
 0051\B,0,-1.7646910013,2.6219030019,9.793609007\F,0,-1.5099840011,1.25
 81690009,9.9392180071\F,0,-3.0937690022,2.875178002,10.1397460072\H,0,
 1.1235600008,4.9844520035,8.5954810061\H,0,-2.9186980021,2.2186890016,
 7.2317590051\H,0,1.6745440012,5.3998230038,11.3615540081\H,0,0.5366570
 004,4.5386880032,13.3853040095\H,0,-1.8827850013,3.1406100022,5.162663
 0037\H,0,-1.339428001,2.9379900021,12.5690860089\H,0,0.1943640001,4.51
 84260032,5.9872780043\\Version=ES64L-G16RevC.01\HF=-680.813589\S2=0.78
 7619\S2-1=0.\S2A=0.751012\RMSD=5.978e-09\Dipole=0.6220785,0.7018218,-0
 .2661388\Quadrupole=117.4377618,89.5578162,-206.995578,13.5124539,41.7
 370472,-104.3500064\PG=C01 [X(C9H7B1F2N2)]\\@


 ROSE IS A RED
 TY COBB IS BLUE
 'CAUSE PETE JUST HIT
 NO. 4592.
 Job cpu time:       0 days  0 hours  4 minutes 10.8 seconds.
 Elapsed time:       0 days  0 hours  1 minutes  3.4 seconds.
 File lengths (MBytes):  RWF=     68 Int=      0 D2E=      0 Chk=      6 Scr=      2
 Normal termination of Gaussian 16 at Tue May  6 19:27:01 2025.
