[Molden Format]
[N_Atoms]
                    10
[Atoms] (AU)
C1          1      6           0.00000000     -2.42606819      2.17152208
C2          2      6           0.00000000      0.00000000      0.70256238
C3          3      6           0.00000000      2.42606819      2.17152208
S4          4     16           0.00000000      0.00000000     -2.36312142
H5          5      1           0.00000000     -2.11192012      4.19555104
H6          6      1           1.64685852     -3.54009954      1.66585027
H7          7      1          -1.64685852     -3.54009954      1.66585027
H8          8      1           0.00000000      2.11192012      4.19555104
H9          9      1          -1.64685852      3.54009954      1.66585027
H10        10      1           1.64685852      3.54009954      1.66585027
[5D]
[7F]
[9G]
[Charge] (Mulliken)
 -0.207951982695688     
  2.082366018252024E-002
 -0.207952000281812     
  0.492230718157590     
  0.167911942249521     
  0.141756381854775     
  0.141756406434957     
  0.167912010885329     
  0.141756430035364     
  0.141756433175221     
[GTO] (AU)
   1
   s  10
  0.823600000E+04  0.530999862E-03
  0.123500000E+04  0.410799893E-02
  0.280800000E+03  0.210869945E-01
  0.792700000E+02  0.818529787E-01
  0.255900000E+02  0.234816939E+00
  0.899700000E+01  0.434400887E+00
  0.331900000E+01  0.346128910E+00
  0.905900000E+00  0.393779897E-01
  0.364300000E+00 -0.898299766E-02
  0.128500000E+00  0.238499938E-02
   s  10
  0.823600000E+04 -0.112999941E-03
  0.123500000E+04 -0.877999545E-03
  0.280800000E+03 -0.453999765E-02
  0.792700000E+02 -0.181329906E-01
  0.255900000E+02 -0.557599711E-01
  0.899700000E+01 -0.126894934E+00
  0.331900000E+01 -0.170351912E+00
  0.905900000E+00  0.140381927E+00
  0.364300000E+00  0.598683690E+00
  0.128500000E+00  0.395388795E+00
   s   1
  0.905900000E+00  0.100000000E+01
   s   1
  0.128500000E+00  0.100000000E+01
   p   5
  0.187100000E+02  0.140309984E-01
  0.413300000E+01  0.868659900E-01
  0.120000000E+01  0.290215966E+00
  0.382700000E+00  0.501007942E+00
  0.120900000E+00  0.343405960E+00
   p   1
  0.382700000E+00  0.100000000E+01
   p   1
  0.120900000E+00  0.100000000E+01
   d   1
  0.109700000E+01  0.100000000E+01
   d   1
  0.318000000E+00  0.100000000E+01
   f   1
  0.761000000E+00  0.100000000E+01
 
   2
   s  10
  0.823600000E+04  0.530999862E-03
  0.123500000E+04  0.410799893E-02
  0.280800000E+03  0.210869945E-01
  0.792700000E+02  0.818529787E-01
  0.255900000E+02  0.234816939E+00
  0.899700000E+01  0.434400887E+00
  0.331900000E+01  0.346128910E+00
  0.905900000E+00  0.393779897E-01
  0.364300000E+00 -0.898299766E-02
  0.128500000E+00  0.238499938E-02
   s  10
  0.823600000E+04 -0.112999941E-03
  0.123500000E+04 -0.877999545E-03
  0.280800000E+03 -0.453999765E-02
  0.792700000E+02 -0.181329906E-01
  0.255900000E+02 -0.557599711E-01
  0.899700000E+01 -0.126894934E+00
  0.331900000E+01 -0.170351912E+00
  0.905900000E+00  0.140381927E+00
  0.364300000E+00  0.598683690E+00
  0.128500000E+00  0.395388795E+00
   s   1
  0.905900000E+00  0.100000000E+01
   s   1
  0.128500000E+00  0.100000000E+01
   p   5
  0.187100000E+02  0.140309984E-01
  0.413300000E+01  0.868659900E-01
  0.120000000E+01  0.290215966E+00
  0.382700000E+00  0.501007942E+00
  0.120900000E+00  0.343405960E+00
   p   1
  0.382700000E+00  0.100000000E+01
   p   1
  0.120900000E+00  0.100000000E+01
   d   1
  0.109700000E+01  0.100000000E+01
   d   1
  0.318000000E+00  0.100000000E+01
   f   1
  0.761000000E+00  0.100000000E+01
 
   3
   s  10
  0.823600000E+04  0.530999862E-03
  0.123500000E+04  0.410799893E-02
  0.280800000E+03  0.210869945E-01
  0.792700000E+02  0.818529787E-01
  0.255900000E+02  0.234816939E+00
  0.899700000E+01  0.434400887E+00
  0.331900000E+01  0.346128910E+00
  0.905900000E+00  0.393779897E-01
  0.364300000E+00 -0.898299766E-02
  0.128500000E+00  0.238499938E-02
   s  10
  0.823600000E+04 -0.112999941E-03
  0.123500000E+04 -0.877999545E-03
  0.280800000E+03 -0.453999765E-02
  0.792700000E+02 -0.181329906E-01
  0.255900000E+02 -0.557599711E-01
  0.899700000E+01 -0.126894934E+00
  0.331900000E+01 -0.170351912E+00
  0.905900000E+00  0.140381927E+00
  0.364300000E+00  0.598683690E+00
  0.128500000E+00  0.395388795E+00
   s   1
  0.905900000E+00  0.100000000E+01
   s   1
  0.128500000E+00  0.100000000E+01
   p   5
  0.187100000E+02  0.140309984E-01
  0.413300000E+01  0.868659900E-01
  0.120000000E+01  0.290215966E+00
  0.382700000E+00  0.501007942E+00
  0.120900000E+00  0.343405960E+00
   p   1
  0.382700000E+00  0.100000000E+01
   p   1
  0.120900000E+00  0.100000000E+01
   d   1
  0.109700000E+01  0.100000000E+01
   d   1
  0.318000000E+00  0.100000000E+01
   f   1
  0.761000000E+00  0.100000000E+01
 
   4
   s  15
  0.374100000E+06  0.542140346E-04
  0.560500000E+05  0.420855269E-03
  0.127600000E+05  0.220698141E-02
  0.361500000E+04  0.919258587E-02
  0.118300000E+04  0.321123205E-01
  0.428800000E+03  0.946683605E-01
  0.167800000E+03  0.223630143E+00
  0.694700000E+02  0.374393239E+00
  0.298400000E+02  0.329108210E+00
  0.127200000E+02  0.847038541E-01
  0.524400000E+01  0.440851282E-03
  0.221900000E+01  0.164827105E-02
  0.776700000E+00 -0.622332397E-03
  0.349000000E+00  0.301306192E-03
  0.132200000E+00 -0.841290537E-04
   s  15
  0.374100000E+06 -0.149837065E-04
  0.560500000E+05 -0.116198050E-03
  0.127600000E+05 -0.611583266E-03
  0.361500000E+04 -0.255370111E-02
  0.118300000E+04 -0.908708395E-02
  0.428800000E+03 -0.277045120E-01
  0.167800000E+03 -0.720020313E-01
  0.694700000E+02 -0.146439064E+00
  0.298400000E+02 -0.195150085E+00
  0.127200000E+02  0.819193356E-02
  0.524400000E+01  0.516601224E+00
  0.221900000E+01  0.542178235E+00
  0.776700000E+00  0.688430299E-01
  0.349000000E+00 -0.918072399E-02
  0.132200000E+00  0.226832099E-02
   s  15
  0.374100000E+06  0.435065735E-05
  0.560500000E+05  0.337139795E-04
  0.127600000E+05  0.177673892E-03
  0.361500000E+04  0.741115549E-03
  0.118300000E+04  0.264590839E-02
  0.428800000E+03  0.807486508E-02
  0.167800000E+03  0.212275871E-01
  0.694700000E+02  0.438322733E-01
  0.298400000E+02  0.612715627E-01
  0.127200000E+02 -0.361509780E-02
  0.524400000E+01 -0.204509875E+00
  0.221900000E+01 -0.381870767E+00
  0.776700000E+00  0.826843496E-01
  0.349000000E+00  0.714146565E+00
  0.132200000E+00  0.393790760E+00
   s   1
  0.776700000E+00  0.100000000E+01
   s   1
  0.132200000E+00  0.100000000E+01
   p   9
  0.574400000E+03  0.242263852E-02
  0.135800000E+03  0.192795883E-01
  0.431900000E+02  0.885400461E-01
  0.158700000E+02  0.254653845E+00
  0.620800000E+01  0.433983736E+00
  0.248300000E+01  0.354952784E+00
  0.868800000E+00  0.618940623E-01
  0.322900000E+00 -0.502976694E-02
  0.109800000E+00  0.209812872E-02
   p   9
  0.574400000E+03 -0.620101827E-03
  0.135800000E+03 -0.493881863E-02
  0.431900000E+02 -0.232646935E-01
  0.158700000E+02 -0.685194809E-01
  0.620800000E+01 -0.123895966E+00
  0.248300000E+01 -0.969498730E-01
  0.868800000E+00  0.228214937E+00
  0.322900000E+00  0.569393842E+00
  0.109800000E+00  0.366301898E+00
   p   1
  0.868800000E+00  0.100000000E+01
   p   1
  0.109800000E+00  0.100000000E+01
   d   1
  0.269000000E+00  0.100000000E+01
   d   1
  0.819000000E+00  0.100000000E+01
   f   1
  0.557000000E+00  0.100000000E+01
 
   5
   s   5
  0.338700000E+02  0.606799922E-02
  0.509500000E+01  0.453079942E-01
  0.115900000E+01  0.202821974E+00
  0.325800000E+00  0.503902935E+00
  0.102700000E+00  0.383420951E+00
   s   1
  0.325800000E+00  0.100000000E+01
   s   1
  0.102700000E+00  0.100000000E+01
   p   1
  0.140700000E+01  0.100000000E+01
   p   1
  0.388000000E+00  0.100000000E+01
   d   1
  0.105700000E+01  0.100000000E+01
 
   6
   s   5
  0.338700000E+02  0.606799922E-02
  0.509500000E+01  0.453079942E-01
  0.115900000E+01  0.202821974E+00
  0.325800000E+00  0.503902935E+00
  0.102700000E+00  0.383420951E+00
   s   1
  0.325800000E+00  0.100000000E+01
   s   1
  0.102700000E+00  0.100000000E+01
   p   1
  0.140700000E+01  0.100000000E+01
   p   1
  0.388000000E+00  0.100000000E+01
   d   1
  0.105700000E+01  0.100000000E+01
 
   7
   s   5
  0.338700000E+02  0.606799922E-02
  0.509500000E+01  0.453079942E-01
  0.115900000E+01  0.202821974E+00
  0.325800000E+00  0.503902935E+00
  0.102700000E+00  0.383420951E+00
   s   1
  0.325800000E+00  0.100000000E+01
   s   1
  0.102700000E+00  0.100000000E+01
   p   1
  0.140700000E+01  0.100000000E+01
   p   1
  0.388000000E+00  0.100000000E+01
   d   1
  0.105700000E+01  0.100000000E+01
 
   8
   s   5
  0.338700000E+02  0.606799922E-02
  0.509500000E+01  0.453079942E-01
  0.115900000E+01  0.202821974E+00
  0.325800000E+00  0.503902935E+00
  0.102700000E+00  0.383420951E+00
   s   1
  0.325800000E+00  0.100000000E+01
   s   1
  0.102700000E+00  0.100000000E+01
   p   1
  0.140700000E+01  0.100000000E+01
   p   1
  0.388000000E+00  0.100000000E+01
   d   1
  0.105700000E+01  0.100000000E+01
 
   9
   s   5
  0.338700000E+02  0.606799922E-02
  0.509500000E+01  0.453079942E-01
  0.115900000E+01  0.202821974E+00
  0.325800000E+00  0.503902935E+00
  0.102700000E+00  0.383420951E+00
   s   1
  0.325800000E+00  0.100000000E+01
   s   1
  0.102700000E+00  0.100000000E+01
   p   1
  0.140700000E+01  0.100000000E+01
   p   1
  0.388000000E+00  0.100000000E+01
   d   1
  0.105700000E+01  0.100000000E+01
 
  10
   s   5
  0.338700000E+02  0.606799922E-02
  0.509500000E+01  0.453079942E-01
  0.115900000E+01  0.202821974E+00
  0.325800000E+00  0.503902935E+00
  0.102700000E+00  0.383420951E+00
   s   1
  0.325800000E+00  0.100000000E+01
   s   1
  0.102700000E+00  0.100000000E+01
   p   1
  0.140700000E+01  0.100000000E+01
   p   1
  0.388000000E+00  0.100000000E+01
   d   1
  0.105700000E+01  0.100000000E+01
 
[MO]
Sym=     1a  
Ene=   -92.3170
Spin= Alpha
Occup=    2.00000
   1        -0.00000719
   2        -0.00002359
   3         0.00000290
   4         0.00004721
   5         0.00000000
   6        -0.00000118
   7         0.00000235
   8        -0.00000000
   9         0.00000266
  10        -0.00001280
  11         0.00000000
  12         0.00002327
  13        -0.00001535
  14        -0.00000087
  15         0.00000000
  16         0.00000030
  17         0.00000064
  18         0.00000000
  19        -0.00000438
  20         0.00000000
  21        -0.00000160
  22        -0.00000489
  23         0.00000000
  24        -0.00000354
  25         0.00000000
  26         0.00000229
  27        -0.00000032
  28        -0.00000000
  29        -0.00000000
  30        -0.00000104
  31        -0.00001773
  32        -0.00005966
  33         0.00001743
  34        -0.00006604
  35         0.00000000
  36         0.00000000
  37        -0.00000013
  38        -0.00000000
  39        -0.00000000
  40         0.00004981
  41        -0.00000000
  42        -0.00000000
  43        -0.00004095
  44        -0.00000491
  45         0.00000000
  46         0.00000000
  47        -0.00000202
  48        -0.00000000
  49        -0.00001864
  50        -0.00000000
  51        -0.00000000
  52         0.00000923
  53        -0.00000000
  54        -0.00000446
  55        -0.00000000
  56        -0.00000000
  57        -0.00000066
  58        -0.00000000
  59         0.00000000
  60         0.00000000
  61        -0.00000719
  62        -0.00002359
  63         0.00000290
  64         0.00004721
  65        -0.00000000
  66         0.00000118
  67         0.00000235
  68        -0.00000000
  69        -0.00000266
  70        -0.00001280
  71         0.00000000
  72        -0.00002327
  73        -0.00001535
  74        -0.00000087
  75         0.00000000
  76        -0.00000030
  77         0.00000064
  78         0.00000000
  79        -0.00000438
  80         0.00000000
  81         0.00000160
  82        -0.00000489
  83        -0.00000000
  84        -0.00000354
  85         0.00000000
  86        -0.00000229
  87        -0.00000032
  88         0.00000000
  89        -0.00000000
  90         0.00000104
  91         1.00000848
  92         0.00005092
  93         0.00009252
  94        -0.00004330
  95        -0.00005349
  96        -0.00000000
  97        -0.00000000
  98         0.00007462
  99        -0.00000000
 100        -0.00000000
 101         0.00013029
 102         0.00000000
 103         0.00000000
 104        -0.00007760
 105         0.00000000
 106         0.00000000
 107        -0.00007316
 108         0.00002372
 109        -0.00000000
 110        -0.00000000
 111         0.00000186
 112         0.00000000
 113         0.00000373
 114        -0.00000000
 115        -0.00000000
 116        -0.00000452
 117        -0.00000000
 118         0.00000996
 119        -0.00000000
 120        -0.00000000
 121        -0.00000049
 122        -0.00000000
 123         0.00000000
 124         0.00000000
 125        -0.00000064
 126         0.00001578
 127         0.00000248
 128         0.00000000
 129        -0.00000104
 130        -0.00000104
 131        -0.00000000
 132        -0.00000202
 133        -0.00000838
 134         0.00000133
 135        -0.00000000
 136         0.00000149
 137        -0.00000048
 138        -0.00000000
 139         0.00000055
 140        -0.00000299
 141         0.00000790
 142         0.00000033
 143        -0.00000073
 144        -0.00000006
 145        -0.00000090
 146         0.00000374
 147        -0.00000046
 148        -0.00000037
 149         0.00000047
 150        -0.00000044
 151        -0.00000043
 152        -0.00000078
 153         0.00000055
 154        -0.00000299
 155         0.00000790
 156        -0.00000033
 157        -0.00000073
 158        -0.00000006
 159         0.00000090
 160         0.00000374
 161        -0.00000046
 162        -0.00000037
 163        -0.00000047
 164        -0.00000044
 165        -0.00000043
 166         0.00000078
 167        -0.00000064
 168         0.00001578
 169         0.00000248
 170         0.00000000
 171         0.00000104
 172        -0.00000104
 173        -0.00000000
 174         0.00000202
 175        -0.00000838
 176         0.00000133
 177         0.00000000
 178        -0.00000149
 179        -0.00000048
 180         0.00000000
 181         0.00000055
 182        -0.00000299
 183         0.00000790
 184        -0.00000033
 185         0.00000073
 186        -0.00000006
 187         0.00000090
 188        -0.00000374
 189        -0.00000046
 190        -0.00000037
 191        -0.00000047
 192         0.00000044
 193        -0.00000043
 194        -0.00000078
 195         0.00000055
 196        -0.00000299
 197         0.00000790
 198         0.00000033
 199         0.00000073
 200        -0.00000006
 201        -0.00000090
 202        -0.00000374
 203        -0.00000046
 204        -0.00000037
 205         0.00000047
 206         0.00000044
 207        -0.00000043
 208         0.00000078
Sym=     2a  
Ene=   -11.4960
Spin= Alpha
Occup=    2.00000
   1        -0.00468655
   2         0.00025124
   3        -0.00028122
   4         0.00166346
   5         0.00000000
   6        -0.00067544
   7         0.00053496
   8        -0.00000000
   9         0.00069022
  10        -0.00051683
  11        -0.00000000
  12         0.00123906
  13        -0.00053903
  14         0.00003223
  15         0.00000000
  16        -0.00003736
  17        -0.00006023
  18         0.00000000
  19        -0.00006916
  20         0.00000000
  21        -0.00067924
  22        -0.00014479
  23         0.00000000
  24         0.00015335
  25         0.00000000
  26         0.00001785
  27         0.00027133
  28        -0.00000000
  29         0.00000000
  30        -0.00013993
  31        -0.99861570
  32         0.00005907
  33        -0.00245636
  34        -0.00197393
  35         0.00000000
  36         0.00000000
  37         0.00485394
  38         0.00000000
  39        -0.00000000
  40        -0.00553675
  41         0.00000000
  42         0.00000000
  43        -0.00367342
  44        -0.00021287
  45         0.00000000
  46        -0.00000000
  47         0.00030219
  48        -0.00000000
  49         0.00167791
  50         0.00000000
  51        -0.00000000
  52         0.00060245
  53         0.00000000
  54         0.00010901
  55        -0.00000000
  56         0.00000000
  57         0.00038281
  58         0.00000000
  59        -0.00000000
  60         0.00000000
  61        -0.00468655
  62         0.00025124
  63        -0.00028122
  64         0.00166346
  65         0.00000000
  66         0.00067544
  67         0.00053496
  68        -0.00000000
  69        -0.00069022
  70        -0.00051683
  71        -0.00000000
  72        -0.00123906
  73        -0.00053903
  74         0.00003223
  75         0.00000000
  76         0.00003736
  77        -0.00006023
  78        -0.00000000
  79        -0.00006916
  80         0.00000000
  81         0.00067924
  82        -0.00014479
  83        -0.00000000
  84         0.00015335
  85        -0.00000000
  86        -0.00001785
  87         0.00027133
  88         0.00000000
  89        -0.00000000
  90         0.00013993
  91        -0.00015685
  92        -0.00114725
  93        -0.00241335
  94         0.00071462
  95        -0.00123950
  96         0.00000000
  97        -0.00000000
  98        -0.00110384
  99         0.00000000
 100        -0.00000000
 101        -0.00379978
 102        -0.00000000
 103         0.00000000
 104         0.00104809
 105        -0.00000000
 106        -0.00000000
 107         0.00074388
 108        -0.00099130
 109         0.00000000
 110        -0.00000000
 111         0.00004028
 112        -0.00000000
 113        -0.00026747
 114         0.00000000
 115         0.00000000
 116        -0.00001585
 117         0.00000000
 118        -0.00006065
 119         0.00000000
 120        -0.00000000
 121         0.00000982
 122        -0.00000000
 123         0.00000000
 124        -0.00000000
 125         0.00029714
 126        -0.00014651
 127        -0.00010068
 128        -0.00000000
 129         0.00006330
 130        -0.00000942
 131         0.00000000
 132         0.00011169
 133         0.00005923
 134        -0.00002102
 135        -0.00000000
 136        -0.00005324
 137         0.00001456
 138        -0.00000000
 139        -0.00008078
 140         0.00015490
 141         0.00028099
 142         0.00002919
 143         0.00000611
 144        -0.00001820
 145        -0.00012800
 146         0.00006337
 147        -0.00009110
 148        -0.00001451
 149         0.00002654
 150        -0.00001622
 151        -0.00000720
 152        -0.00001231
 153        -0.00008078
 154         0.00015490
 155         0.00028099
 156        -0.00002919
 157         0.00000611
 158        -0.00001820
 159         0.00012800
 160         0.00006337
 161        -0.00009111
 162        -0.00001451
 163        -0.00002654
 164        -0.00001622
 165        -0.00000720
 166         0.00001231
 167         0.00029714
 168        -0.00014651
 169        -0.00010068
 170        -0.00000000
 171        -0.00006330
 172        -0.00000942
 173        -0.00000000
 174        -0.00011169
 175         0.00005923
 176        -0.00002102
 177         0.00000000
 178         0.00005324
 179         0.00001456
 180        -0.00000000
 181        -0.00008078
 182         0.00015490
 183         0.00028099
 184        -0.00002919
 185        -0.00000611
 186        -0.00001820
 187         0.00012800
 188        -0.00006337
 189        -0.00009110
 190        -0.00001451
 191        -0.00002654
 192         0.00001622
 193        -0.00000720
 194        -0.00001231
 195        -0.00008078
 196         0.00015490
 197         0.00028099
 198         0.00002919
 199        -0.00000611
 200        -0.00001820
 201        -0.00012800
 202        -0.00006337
 203        -0.00009110
 204        -0.00001451
 205         0.00002654
 206         0.00001622
 207        -0.00000720
 208         0.00001231
Sym=     3a  
Ene=   -11.4290
Spin= Alpha
Occup=    2.00000
   1        -0.70688164
   2        -0.00243238
   3        -0.00111004
   4        -0.00291912
   5        -0.00000000
   6        -0.00126391
   7         0.00099620
   8         0.00000000
   9         0.00154543
  10        -0.00106639
  11        -0.00000000
  12         0.00032260
  13        -0.00020696
  14        -0.00001100
  15        -0.00000000
  16        -0.00011538
  17        -0.00006644
  18        -0.00000000
  19         0.00008937
  20        -0.00000000
  21        -0.00042432
  22        -0.00028674
  23        -0.00000000
  24        -0.00040285
  25        -0.00000000
  26        -0.00016651
  27         0.00006762
  28         0.00000000
  29         0.00000000
  30         0.00037934
  31         0.00000001
  32        -0.00000000
  33         0.00000000
  34        -0.00000000
  35         0.00000000
  36         0.00078249
  37        -0.00000000
  38        -0.00000000
  39         0.00030913
  40         0.00000000
  41         0.00000000
  42        -0.00095293
  43         0.00000000
  44         0.00000000
  45        -0.00000000
  46         0.00007201
  47        -0.00000000
  48        -0.00000000
  49        -0.00000000
  50        -0.00000000
  51        -0.00045887
  52         0.00000000
  53         0.00000000
  54        -0.00000000
  55         0.00000000
  56        -0.00006991
  57        -0.00000000
  58         0.00000000
  59         0.00000000
  60         0.00014299
  61         0.70687876
  62         0.00243237
  63         0.00111004
  64         0.00291912
  65         0.00000000
  66        -0.00126390
  67        -0.00099619
  68        -0.00000000
  69         0.00154542
  70         0.00106639
  71        -0.00000000
  72         0.00032260
  73         0.00020696
  74         0.00001100
  75        -0.00000000
  76        -0.00011538
  77         0.00006644
  78        -0.00000000
  79        -0.00008937
  80         0.00000000
  81        -0.00042431
  82         0.00028674
  83        -0.00000000
  84         0.00040285
  85         0.00000000
  86        -0.00016651
  87        -0.00006762
  88         0.00000000
  89         0.00000000
  90         0.00037934
  91         0.00000000
  92         0.00000000
  93         0.00000000
  94        -0.00000000
  95         0.00000000
  96         0.00000000
  97        -0.00015467
  98         0.00000000
  99         0.00000000
 100        -0.00046954
 101         0.00000000
 102        -0.00000000
 103         0.00022696
 104        -0.00000000
 105        -0.00000000
 106         0.00009521
 107         0.00000000
 108         0.00000000
 109        -0.00000000
 110        -0.00031378
 111        -0.00000000
 112         0.00000000
 113        -0.00000000
 114         0.00000000
 115         0.00000242
 116         0.00000000
 117         0.00000000
 118        -0.00000000
 119        -0.00000000
 120        -0.00012279
 121        -0.00000000
 122        -0.00000000
 123         0.00000000
 124        -0.00000583
 125        -0.00046491
 126         0.00107180
 127         0.00083910
 128        -0.00000000
 129        -0.00003861
 130        -0.00022627
 131         0.00000000
 132        -0.00004246
 133        -0.00035075
 134         0.00016319
 135        -0.00000000
 136         0.00005220
 137         0.00001904
 138        -0.00000000
 139        -0.00060684
 140         0.00141666
 141         0.00084698
 142        -0.00018522
 143         0.00012091
 144         0.00005730
 145        -0.00033879
 146         0.00027648
 147         0.00011011
 148        -0.00008224
 149        -0.00005368
 150         0.00005909
 151         0.00004632
 152        -0.00014339
 153        -0.00060684
 154         0.00141666
 155         0.00084698
 156         0.00018522
 157         0.00012091
 158         0.00005730
 159         0.00033879
 160         0.00027648
 161         0.00011011
 162        -0.00008224
 163         0.00005368
 164         0.00005909
 165         0.00004632
 166         0.00014339
 167         0.00046491
 168        -0.00107179
 169        -0.00083910
 170         0.00000000
 171        -0.00003861
 172         0.00022627
 173        -0.00000000
 174        -0.00004246
 175         0.00035075
 176        -0.00016319
 177         0.00000000
 178         0.00005220
 179        -0.00001904
 180        -0.00000000
 181         0.00060684
 182        -0.00141665
 183        -0.00084698
 184        -0.00018522
 185         0.00012090
 186        -0.00005730
 187        -0.00033879
 188         0.00027648
 189        -0.00011011
 190         0.00008224
 191        -0.00005368
 192         0.00005909
 193        -0.00004632
 194         0.00014339
 195         0.00060684
 196        -0.00141665
 197        -0.00084698
 198         0.00018522
 199         0.00012090
 200        -0.00005730
 201         0.00033879
 202         0.00027648
 203        -0.00011011
 204         0.00008224
 205         0.00005368
 206         0.00005909
 207        -0.00004632
 208        -0.00014339
Sym=     4a  
Ene=   -11.4290
Spin= Alpha
Occup=    2.00000
   1         0.70677001
   2         0.00211456
   3         0.00116591
   4         0.00165177
   5         0.00000000
   6         0.00132308
   7        -0.00094305
   8        -0.00000000
   9        -0.00163091
  10         0.00091323
  11         0.00000000
  12        -0.00073574
  13         0.00015179
  14         0.00002257
  15         0.00000000
  16         0.00007507
  17         0.00004998
  18         0.00000000
  19         0.00014225
  20        -0.00000000
  21         0.00024659
  22         0.00029391
  23        -0.00000000
  24         0.00045963
  25        -0.00000000
  26         0.00023953
  27        -0.00000642
  28        -0.00000000
  29        -0.00000000
  30        -0.00033469
  31        -0.00678684
  32         0.00116068
  33         0.00000827
  34        -0.00015631
  35         0.00000000
  36         0.00000000
  37         0.00044790
  38        -0.00000000
  39         0.00000000
  40        -0.00006880
  41        -0.00000000
  42        -0.00000000
  43        -0.00072511
  44        -0.00006225
  45        -0.00000000
  46         0.00000000
  47         0.00002682
  48        -0.00000000
  49         0.00042726
  50         0.00000000
  51        -0.00000000
  52        -0.00001391
  53         0.00000000
  54         0.00020223
  55        -0.00000000
  56        -0.00000000
  57         0.00033838
  58         0.00000000
  59         0.00000000
  60         0.00000000
  61         0.70677289
  62         0.00211457
  63         0.00116592
  64         0.00165179
  65         0.00000000
  66        -0.00132309
  67        -0.00094305
  68         0.00000000
  69         0.00163091
  70         0.00091323
  71        -0.00000000
  72         0.00073574
  73         0.00015179
  74         0.00002257
  75        -0.00000000
  76        -0.00007507
  77         0.00004998
  78         0.00000000
  79         0.00014225
  80        -0.00000000
  81        -0.00024660
  82         0.00029391
  83         0.00000000
  84         0.00045963
  85        -0.00000000
  86        -0.00023953
  87        -0.00000642
  88         0.00000000
  89         0.00000000
  90         0.00033469
  91        -0.00000210
  92        -0.00000420
  93        -0.00002194
  94         0.00007931
  95        -0.00114977
  96         0.00000000
  97        -0.00000000
  98        -0.00024177
  99         0.00000000
 100        -0.00000000
 101        -0.00075494
 102        -0.00000000
 103         0.00000000
 104         0.00032163
 105         0.00000000
 106         0.00000000
 107        -0.00015981
 108        -0.00018247
 109         0.00000000
 110        -0.00000000
 111         0.00008582
 112        -0.00000000
 113         0.00001214
 114         0.00000000
 115        -0.00000000
 116        -0.00000967
 117         0.00000000
 118         0.00002192
 119         0.00000000
 120        -0.00000000
 121         0.00006455
 122        -0.00000000
 123        -0.00000000
 124        -0.00000000
 125         0.00027478
 126        -0.00080252
 127        -0.00044494
 128        -0.00000000
 129         0.00003774
 130         0.00024231
 131         0.00000000
 132         0.00009093
 133         0.00028001
 134        -0.00014877
 135        -0.00000000
 136        -0.00005263
 137         0.00000338
 138        -0.00000000
 139         0.00044794
 140        -0.00095741
 141        -0.00081954
 142         0.00017884
 143        -0.00013011
 144        -0.00005845
 145         0.00028095
 146        -0.00014576
 147        -0.00004548
 148         0.00007529
 149         0.00005221
 150        -0.00004299
 151        -0.00006545
 152         0.00012576
 153         0.00044794
 154        -0.00095741
 155        -0.00081954
 156        -0.00017884
 157        -0.00013011
 158        -0.00005845
 159        -0.00028095
 160        -0.00014576
 161        -0.00004548
 162         0.00007529
 163        -0.00005221
 164        -0.00004299
 165        -0.00006545
 166        -0.00012576
 167         0.00027478
 168        -0.00080252
 169        -0.00044495
 170        -0.00000000
 171        -0.00003774
 172         0.00024231
 173         0.00000000
 174        -0.00009093
 175         0.00028002
 176        -0.00014877
 177        -0.00000000
 178         0.00005263
 179         0.00000338
 180        -0.00000000
 181         0.00044794
 182        -0.00095742
 183        -0.00081955
 184        -0.00017884
 185         0.00013011
 186        -0.00005845
 187        -0.00028096
 188         0.00014576
 189        -0.00004548
 190         0.00007529
 191        -0.00005221
 192         0.00004299
 193        -0.00006545
 194         0.00012576
 195         0.00044794
 196        -0.00095742
 197        -0.00081955
 198         0.00017884
 199         0.00013011
 200        -0.00005845
 201         0.00028096
 202         0.00014576
 203        -0.00004548
 204         0.00007529
 205         0.00005221
 206         0.00004299
 207        -0.00006545
 208        -0.00012576