[Molden Format]
[N_Atoms]
                    10
[Atoms] (AU)
C1          1      6           0.00000000     -2.42606819      2.17152208
C2          2      6           0.00000000      0.00000000      0.70256238
C3          3      6           0.00000000      2.42606819      2.17152208
S4          4     16           0.00000000      0.00000000     -2.36312142
H5          5      1           0.00000000     -2.11192012      4.19555104
H6          6      1           1.64685852     -3.54009954      1.66585027
H7          7      1          -1.64685852     -3.54009954      1.66585027
H8          8      1           0.00000000      2.11192012      4.19555104
H9          9      1          -1.64685852      3.54009954      1.66585027
H10        10      1           1.64685852      3.54009954      1.66585027
[5D]
[7F]
[9G]
[Charge] (Mulliken)
  0.000000000000000E+000
  0.000000000000000E+000
  0.000000000000000E+000
  0.000000000000000E+000
  0.000000000000000E+000
  0.000000000000000E+000
  0.000000000000000E+000
  0.000000000000000E+000
  0.000000000000000E+000
  0.000000000000000E+000
[GTO] (AU)
   1
   s  10
  0.823600000E+04  0.530999862E-03
  0.123500000E+04  0.410799893E-02
  0.280800000E+03  0.210869945E-01
  0.792700000E+02  0.818529787E-01
  0.255900000E+02  0.234816939E+00
  0.899700000E+01  0.434400887E+00
  0.331900000E+01  0.346128910E+00
  0.905900000E+00  0.393779897E-01
  0.364300000E+00 -0.898299766E-02
  0.128500000E+00  0.238499938E-02
   s  10
  0.823600000E+04 -0.112999941E-03
  0.123500000E+04 -0.877999545E-03
  0.280800000E+03 -0.453999765E-02
  0.792700000E+02 -0.181329906E-01
  0.255900000E+02 -0.557599711E-01
  0.899700000E+01 -0.126894934E+00
  0.331900000E+01 -0.170351912E+00
  0.905900000E+00  0.140381927E+00
  0.364300000E+00  0.598683690E+00
  0.128500000E+00  0.395388795E+00
   s   1
  0.905900000E+00  0.100000000E+01
   s   1
  0.128500000E+00  0.100000000E+01
   p   5
  0.187100000E+02  0.140309984E-01
  0.413300000E+01  0.868659900E-01
  0.120000000E+01  0.290215966E+00
  0.382700000E+00  0.501007942E+00
  0.120900000E+00  0.343405960E+00
   p   1
  0.382700000E+00  0.100000000E+01
   p   1
  0.120900000E+00  0.100000000E+01
   d   1
  0.109700000E+01  0.100000000E+01
   d   1
  0.318000000E+00  0.100000000E+01
   f   1
  0.761000000E+00  0.100000000E+01
 
   2
   s  10
  0.823600000E+04  0.530999862E-03
  0.123500000E+04  0.410799893E-02
  0.280800000E+03  0.210869945E-01
  0.792700000E+02  0.818529787E-01
  0.255900000E+02  0.234816939E+00
  0.899700000E+01  0.434400887E+00
  0.331900000E+01  0.346128910E+00
  0.905900000E+00  0.393779897E-01
  0.364300000E+00 -0.898299766E-02
  0.128500000E+00  0.238499938E-02
   s  10
  0.823600000E+04 -0.112999941E-03
  0.123500000E+04 -0.877999545E-03
  0.280800000E+03 -0.453999765E-02
  0.792700000E+02 -0.181329906E-01
  0.255900000E+02 -0.557599711E-01
  0.899700000E+01 -0.126894934E+00
  0.331900000E+01 -0.170351912E+00
  0.905900000E+00  0.140381927E+00
  0.364300000E+00  0.598683690E+00
  0.128500000E+00  0.395388795E+00
   s   1
  0.905900000E+00  0.100000000E+01
   s   1
  0.128500000E+00  0.100000000E+01
   p   5
  0.187100000E+02  0.140309984E-01
  0.413300000E+01  0.868659900E-01
  0.120000000E+01  0.290215966E+00
  0.382700000E+00  0.501007942E+00
  0.120900000E+00  0.343405960E+00
   p   1
  0.382700000E+00  0.100000000E+01
   p   1
  0.120900000E+00  0.100000000E+01
   d   1
  0.109700000E+01  0.100000000E+01
   d   1
  0.318000000E+00  0.100000000E+01
   f   1
  0.761000000E+00  0.100000000E+01
 
   3
   s  10
  0.823600000E+04  0.530999862E-03
  0.123500000E+04  0.410799893E-02
  0.280800000E+03  0.210869945E-01
  0.792700000E+02  0.818529787E-01
  0.255900000E+02  0.234816939E+00
  0.899700000E+01  0.434400887E+00
  0.331900000E+01  0.346128910E+00
  0.905900000E+00  0.393779897E-01
  0.364300000E+00 -0.898299766E-02
  0.128500000E+00  0.238499938E-02
   s  10
  0.823600000E+04 -0.112999941E-03
  0.123500000E+04 -0.877999545E-03
  0.280800000E+03 -0.453999765E-02
  0.792700000E+02 -0.181329906E-01
  0.255900000E+02 -0.557599711E-01
  0.899700000E+01 -0.126894934E+00
  0.331900000E+01 -0.170351912E+00
  0.905900000E+00  0.140381927E+00
  0.364300000E+00  0.598683690E+00
  0.128500000E+00  0.395388795E+00
   s   1
  0.905900000E+00  0.100000000E+01
   s   1
  0.128500000E+00  0.100000000E+01
   p   5
  0.187100000E+02  0.140309984E-01
  0.413300000E+01  0.868659900E-01
  0.120000000E+01  0.290215966E+00
  0.382700000E+00  0.501007942E+00
  0.120900000E+00  0.343405960E+00
   p   1
  0.382700000E+00  0.100000000E+01
   p   1
  0.120900000E+00  0.100000000E+01
   d   1
  0.109700000E+01  0.100000000E+01
   d   1
  0.318000000E+00  0.100000000E+01
   f   1
  0.761000000E+00  0.100000000E+01
 
   4
   s  15
  0.374100000E+06  0.542140346E-04
  0.560500000E+05  0.420855269E-03
  0.127600000E+05  0.220698141E-02
  0.361500000E+04  0.919258587E-02
  0.118300000E+04  0.321123205E-01
  0.428800000E+03  0.946683605E-01
  0.167800000E+03  0.223630143E+00
  0.694700000E+02  0.374393239E+00
  0.298400000E+02  0.329108210E+00
  0.127200000E+02  0.847038541E-01
  0.524400000E+01  0.440851282E-03
  0.221900000E+01  0.164827105E-02
  0.776700000E+00 -0.622332397E-03
  0.349000000E+00  0.301306192E-03
  0.132200000E+00 -0.841290537E-04
   s  15
  0.374100000E+06 -0.149837065E-04
  0.560500000E+05 -0.116198050E-03
  0.127600000E+05 -0.611583266E-03
  0.361500000E+04 -0.255370111E-02
  0.118300000E+04 -0.908708395E-02
  0.428800000E+03 -0.277045120E-01
  0.167800000E+03 -0.720020313E-01
  0.694700000E+02 -0.146439064E+00
  0.298400000E+02 -0.195150085E+00
  0.127200000E+02  0.819193356E-02
  0.524400000E+01  0.516601224E+00
  0.221900000E+01  0.542178235E+00
  0.776700000E+00  0.688430299E-01
  0.349000000E+00 -0.918072399E-02
  0.132200000E+00  0.226832099E-02
   s  15
  0.374100000E+06  0.435065735E-05
  0.560500000E+05  0.337139795E-04
  0.127600000E+05  0.177673892E-03
  0.361500000E+04  0.741115549E-03
  0.118300000E+04  0.264590839E-02
  0.428800000E+03  0.807486508E-02
  0.167800000E+03  0.212275871E-01
  0.694700000E+02  0.438322733E-01
  0.298400000E+02  0.612715627E-01
  0.127200000E+02 -0.361509780E-02
  0.524400000E+01 -0.204509875E+00
  0.221900000E+01 -0.381870767E+00
  0.776700000E+00  0.826843496E-01
  0.349000000E+00  0.714146565E+00
  0.132200000E+00  0.393790760E+00
   s   1
  0.776700000E+00  0.100000000E+01
   s   1
  0.132200000E+00  0.100000000E+01
   p   9
  0.574400000E+03  0.242263852E-02
  0.135800000E+03  0.192795883E-01
  0.431900000E+02  0.885400461E-01
  0.158700000E+02  0.254653845E+00
  0.620800000E+01  0.433983736E+00
  0.248300000E+01  0.354952784E+00
  0.868800000E+00  0.618940623E-01
  0.322900000E+00 -0.502976694E-02
  0.109800000E+00  0.209812872E-02
   p   9
  0.574400000E+03 -0.620101827E-03
  0.135800000E+03 -0.493881863E-02
  0.431900000E+02 -0.232646935E-01
  0.158700000E+02 -0.685194809E-01
  0.620800000E+01 -0.123895966E+00
  0.248300000E+01 -0.969498730E-01
  0.868800000E+00  0.228214937E+00
  0.322900000E+00  0.569393842E+00
  0.109800000E+00  0.366301898E+00
   p   1
  0.868800000E+00  0.100000000E+01
   p   1
  0.109800000E+00  0.100000000E+01
   d   1
  0.269000000E+00  0.100000000E+01
   d   1
  0.819000000E+00  0.100000000E+01
   f   1
  0.557000000E+00  0.100000000E+01
 
   5
   s   5
  0.338700000E+02  0.606799922E-02
  0.509500000E+01  0.453079942E-01
  0.115900000E+01  0.202821974E+00
  0.325800000E+00  0.503902935E+00
  0.102700000E+00  0.383420951E+00
   s   1
  0.325800000E+00  0.100000000E+01
   s   1
  0.102700000E+00  0.100000000E+01
   p   1
  0.140700000E+01  0.100000000E+01
   p   1
  0.388000000E+00  0.100000000E+01
   d   1
  0.105700000E+01  0.100000000E+01
 
   6
   s   5
  0.338700000E+02  0.606799922E-02
  0.509500000E+01  0.453079942E-01
  0.115900000E+01  0.202821974E+00
  0.325800000E+00  0.503902935E+00
  0.102700000E+00  0.383420951E+00
   s   1
  0.325800000E+00  0.100000000E+01
   s   1
  0.102700000E+00  0.100000000E+01
   p   1
  0.140700000E+01  0.100000000E+01
   p   1
  0.388000000E+00  0.100000000E+01
   d   1
  0.105700000E+01  0.100000000E+01
 
   7
   s   5
  0.338700000E+02  0.606799922E-02
  0.509500000E+01  0.453079942E-01
  0.115900000E+01  0.202821974E+00
  0.325800000E+00  0.503902935E+00
  0.102700000E+00  0.383420951E+00
   s   1
  0.325800000E+00  0.100000000E+01
   s   1
  0.102700000E+00  0.100000000E+01
   p   1
  0.140700000E+01  0.100000000E+01
   p   1
  0.388000000E+00  0.100000000E+01
   d   1
  0.105700000E+01  0.100000000E+01
 
   8
   s   5
  0.338700000E+02  0.606799922E-02
  0.509500000E+01  0.453079942E-01
  0.115900000E+01  0.202821974E+00
  0.325800000E+00  0.503902935E+00
  0.102700000E+00  0.383420951E+00
   s   1
  0.325800000E+00  0.100000000E+01
   s   1
  0.102700000E+00  0.100000000E+01
   p   1
  0.140700000E+01  0.100000000E+01
   p   1
  0.388000000E+00  0.100000000E+01
   d   1
  0.105700000E+01  0.100000000E+01
 
   9
   s   5
  0.338700000E+02  0.606799922E-02
  0.509500000E+01  0.453079942E-01
  0.115900000E+01  0.202821974E+00
  0.325800000E+00  0.503902935E+00
  0.102700000E+00  0.383420951E+00
   s   1
  0.325800000E+00  0.100000000E+01
   s   1
  0.102700000E+00  0.100000000E+01
   p   1
  0.140700000E+01  0.100000000E+01
   p   1
  0.388000000E+00  0.100000000E+01
   d   1
  0.105700000E+01  0.100000000E+01
 
  10
   s   5
  0.338700000E+02  0.606799922E-02
  0.509500000E+01  0.453079942E-01
  0.115900000E+01  0.202821974E+00
  0.325800000E+00  0.503902935E+00
  0.102700000E+00  0.383420951E+00
   s   1
  0.325800000E+00  0.100000000E+01
   s   1
  0.102700000E+00  0.100000000E+01
   p   1
  0.140700000E+01  0.100000000E+01
   p   1
  0.388000000E+00  0.100000000E+01
   d   1
  0.105700000E+01  0.100000000E+01
 
[MO]
Sym=     1a  
Ene=   -92.2910
Spin= Alpha
Occup=    2.00000
   1         0.00000182
   2         0.00000415
   3         0.00000003
   4        -0.00000024
   5         0.00000000
   6         0.00000367
   7        -0.00000691
   8        -0.00000000
   9        -0.00000001
  10         0.00000001
  11        -0.00000000
  12        -0.00000028
  13         0.00000053
  14         0.00000000
  15         0.00000000
  16        -0.00000000
  17        -0.00000000
  18         0.00000000
  19         0.00000000
  20         0.00000000
  21         0.00000000
  22        -0.00000000
  23         0.00000000
  24        -0.00000000
  25        -0.00000000
  26         0.00000000
  27        -0.00000000
  28        -0.00000000
  29        -0.00000000
  30         0.00000000
  31         0.00000842
  32         0.00004621
  33         0.00000030
  34        -0.00000269
  35        -0.00000000
  36        -0.00000000
  37        -0.00005763
  38         0.00000000
  39        -0.00000000
  40         0.00000008
  41        -0.00000000
  42        -0.00000000
  43         0.00000441
  44         0.00000000
  45         0.00000000
  46        -0.00000000
  47        -0.00000000
  48        -0.00000000
  49        -0.00000000
  50        -0.00000000
  51         0.00000000
  52        -0.00000000
  53        -0.00000000
  54        -0.00000000
  55         0.00000000
  56        -0.00000000
  57        -0.00000000
  58        -0.00000000
  59         0.00000000
  60         0.00000000
  61         0.00000182
  62         0.00000415
  63         0.00000003
  64        -0.00000024
  65        -0.00000000
  66        -0.00000367
  67        -0.00000691
  68         0.00000000
  69         0.00000001
  70         0.00000001
  71         0.00000000
  72         0.00000028
  73         0.00000053
  74         0.00000000
  75        -0.00000000
  76        -0.00000000
  77        -0.00000000
  78         0.00000000
  79         0.00000000
  80        -0.00000000
  81         0.00000000
  82        -0.00000000
  83         0.00000000
  84         0.00000000
  85        -0.00000000
  86        -0.00000000
  87         0.00000000
  88        -0.00000000
  89        -0.00000000
  90        -0.00000000
  91         0.99930660
  92        -0.00582159
  93        -0.00378305
  94         0.00436357
  95         0.00259872
  96        -0.00000000
  97         0.00000000
  98         0.00000026
  99        -0.00000000
 100         0.00000000
 101         0.00000019
 102         0.00000000
 103        -0.00000000
 104         0.00000000
 105         0.00000000
 106         0.00000000
 107         0.00000000
 108         0.00000000
 109        -0.00000000
 110         0.00000000
 111        -0.00000000
 112        -0.00000000
 113        -0.00000000
 114        -0.00000000
 115         0.00000000
 116         0.00000000
 117        -0.00000000
 118         0.00000000
 119        -0.00000000
 120         0.00000000
 121        -0.00000000
 122        -0.00000000
 123         0.00000000
 124         0.00000000
 125         0.00000067
 126        -0.00000008
 127        -0.00000009
 128        -0.00000000
 129        -0.00000000
 130        -0.00000000
 131         0.00000000
 132        -0.00000000
 133         0.00000000
 134        -0.00000000
 135        -0.00000000
 136         0.00000000
 137         0.00000000
 138        -0.00000000
 139         0.00000322
 140        -0.00000039
 141        -0.00000044
 142        -0.00000000
 143         0.00000000
 144         0.00000000
 145        -0.00000000
 146         0.00000000
 147         0.00000000
 148        -0.00000000
 149        -0.00000000
 150         0.00000000
 151         0.00000000
 152        -0.00000000
 153         0.00000322
 154        -0.00000039
 155        -0.00000044
 156         0.00000000
 157         0.00000000
 158         0.00000000
 159        -0.00000000
 160         0.00000000
 161        -0.00000000
 162        -0.00000000
 163        -0.00000000
 164        -0.00000000
 165         0.00000000
 166        -0.00000000
 167         0.00000067
 168        -0.00000008
 169        -0.00000009
 170         0.00000000
 171        -0.00000000
 172         0.00000000
 173        -0.00000000
 174        -0.00000000
 175         0.00000000
 176        -0.00000000
 177         0.00000000
 178         0.00000000
 179         0.00000000
 180        -0.00000000
 181         0.00000322
 182        -0.00000039
 183        -0.00000044
 184         0.00000000
 185        -0.00000000
 186         0.00000000
 187         0.00000000
 188        -0.00000000
 189         0.00000000
 190        -0.00000000
 191         0.00000000
 192        -0.00000000
 193         0.00000000
 194        -0.00000000
 195         0.00000322
 196        -0.00000039
 197        -0.00000044
 198        -0.00000000
 199        -0.00000000
 200         0.00000000
 201         0.00000000
 202         0.00000000
 203        -0.00000000
 204        -0.00000000
 205         0.00000000
 206         0.00000000
 207         0.00000000
 208        -0.00000000
Sym=     2a  
Ene=   -11.3510
Spin= Alpha
Occup=    2.00000
   1         0.55191443
   2         0.00249120
   3        -0.00046548
   4         0.00154120
   5         0.00000000
   6         0.00185032
   7        -0.00094610
   8        -0.00000000
   9        -0.00000264
  10         0.00000135
  11        -0.00000000
  12        -0.00014151
  13         0.00007236
  14        -0.00000000
  15         0.00000000
  16        -0.00000000
  17         0.00000000
  18         0.00000000
  19        -0.00000000
  20         0.00000000
  21        -0.00000000
  22        -0.00000000
  23         0.00000000
  24         0.00000000
  25         0.00000000
  26         0.00000000
  27         0.00000000
  28        -0.00000000
  29        -0.00000000
  30        -0.00000000
  31         0.62216856
  32         0.00365316
  33        -0.00051906
  34         0.00168777
  35        -0.00000000
  36         0.00000000
  37         0.00171173
  38        -0.00000000
  39         0.00000000
  40        -0.00000244
  41         0.00000000
  42        -0.00000000
  43        -0.00013091
  44         0.00000000
  45         0.00000000
  46        -0.00000000
  47         0.00000000
  48         0.00000000
  49         0.00000000
  50        -0.00000000
  51         0.00000000
  52         0.00000000
  53        -0.00000000
  54        -0.00000000
  55         0.00000000
  56        -0.00000000
  57         0.00000000
  58        -0.00000000
  59        -0.00000000
  60        -0.00000000
  61         0.55191443
  62         0.00249120
  63        -0.00046548
  64         0.00154120
  65         0.00000000
  66        -0.00185032
  67        -0.00094610
  68        -0.00000000
  69         0.00000264
  70         0.00000135
  71        -0.00000000
  72         0.00014151
  73         0.00007236
  74         0.00000000
  75         0.00000000
  76         0.00000000
  77        -0.00000000
  78        -0.00000000
  79         0.00000000
  80        -0.00000000
  81         0.00000000
  82        -0.00000000
  83        -0.00000000
  84        -0.00000000
  85         0.00000000
  86         0.00000000
  87         0.00000000
  88         0.00000000
  89        -0.00000000
  90        -0.00000000
  91        -0.00007242
  92         0.00091742
  93         0.00206565
  94         0.00001317
  95         0.00000769
  96         0.00000000
  97         0.00000000
  98        -0.00023002
  99        -0.00000000
 100         0.00000000
 101         0.00236899
 102         0.00000000
 103        -0.00000000
 104         0.00003574
 105        -0.00000000
 106        -0.00000000
 107         0.00003925
 108        -0.00000000
 109        -0.00000000
 110         0.00000000
 111        -0.00000000
 112         0.00000000
 113         0.00000000
 114         0.00000000
 115        -0.00000000
 116        -0.00000000
 117         0.00000000
 118        -0.00000000
 119         0.00000000
 120         0.00000000
 121        -0.00000000
 122         0.00000000
 123        -0.00000000
 124        -0.00000000
 125         0.00332853
 126        -0.00039975
 127        -0.00044934
 128        -0.00000000
 129         0.00000000
 130        -0.00000000
 131        -0.00000000
 132        -0.00000000
 133        -0.00000000
 134         0.00000000
 135        -0.00000000
 136         0.00000000
 137        -0.00000000
 138        -0.00000000
 139         0.00320225
 140        -0.00038459
 141        -0.00043229
 142        -0.00000000
 143        -0.00000000
 144        -0.00000000
 145        -0.00000000
 146         0.00000000
 147         0.00000000
 148         0.00000000
 149        -0.00000000
 150         0.00000000
 151        -0.00000000
 152         0.00000000
 153         0.00320225
 154        -0.00038459
 155        -0.00043229
 156        -0.00000000
 157        -0.00000000
 158         0.00000000
 159        -0.00000000
 160        -0.00000000
 161        -0.00000000
 162         0.00000000
 163        -0.00000000
 164        -0.00000000
 165        -0.00000000
 166        -0.00000000
 167         0.00332853
 168        -0.00039975
 169        -0.00044934
 170        -0.00000000
 171        -0.00000000
 172         0.00000000
 173        -0.00000000
 174        -0.00000000
 175         0.00000000
 176        -0.00000000
 177        -0.00000000
 178        -0.00000000
 179         0.00000000
 180         0.00000000
 181         0.00320225
 182        -0.00038459
 183        -0.00043229
 184         0.00000000
 185        -0.00000000
 186         0.00000000
 187         0.00000000
 188        -0.00000000
 189         0.00000000
 190        -0.00000000
 191         0.00000000
 192        -0.00000000
 193         0.00000000
 194        -0.00000000
 195         0.00320225
 196        -0.00038459
 197        -0.00043229
 198        -0.00000000
 199        -0.00000000
 200        -0.00000000
 201        -0.00000000
 202        -0.00000000
 203         0.00000000
 204        -0.00000000
 205        -0.00000000
 206        -0.00000000
 207        -0.00000000
 208         0.00000000
Sym=     3a  
Ene=   -11.3390
Spin= Alpha
Occup=    2.00000
   1        -0.70632003
   2        -0.00053646
   3         0.00061350
   4        -0.00212808
   5         0.00000000
   6         0.00035257
   7         0.00001517
   8        -0.00000000
   9        -0.00000050
  10        -0.00000002
  11        -0.00000000
  12        -0.00002696
  13        -0.00000116
  14         0.00000000
  15         0.00000000
  16         0.00000000
  17        -0.00000000
  18         0.00000000
  19         0.00000000
  20         0.00000000
  21         0.00000000
  22         0.00000000
  23         0.00000000
  24         0.00000000
  25         0.00000000
  26         0.00000000
  27        -0.00000000
  28        -0.00000000
  29         0.00000000
  30        -0.00000000
  31        -0.00000000
  32        -0.00000000
  33         0.00000000
  34        -0.00000000
  35        -0.00000000
  36         0.00361142
  37        -0.00000000
  38         0.00000000
  39        -0.00000515
  40        -0.00000000
  41         0.00000000
  42        -0.00027621
  43        -0.00000000
  44         0.00000000
  45        -0.00000000
  46         0.00000000
  47         0.00000000
  48        -0.00000000
  49        -0.00000000
  50        -0.00000000
  51        -0.00000000
  52        -0.00000000
  53        -0.00000000
  54         0.00000000
  55        -0.00000000
  56        -0.00000000
  57        -0.00000000
  58        -0.00000000
  59         0.00000000
  60         0.00000000
  61         0.70632003
  62         0.00053646
  63        -0.00061350
  64         0.00212808
  65        -0.00000000
  66         0.00035257
  67        -0.00001517
  68         0.00000000
  69        -0.00000050
  70         0.00000002
  71         0.00000000
  72        -0.00002696
  73         0.00000116
  74        -0.00000000
  75        -0.00000000
  76         0.00000000
  77         0.00000000
  78         0.00000000
  79        -0.00000000
  80        -0.00000000
  81         0.00000000
  82        -0.00000000
  83         0.00000000
  84         0.00000000
  85        -0.00000000
  86         0.00000000
  87         0.00000000
  88        -0.00000000
  89         0.00000000
  90         0.00000000
  91         0.00000000
  92         0.00000000
  93        -0.00000000
  94        -0.00000000
  95        -0.00000000
  96         0.00000000
  97         0.00006411
  98         0.00000000
  99        -0.00000000
 100         0.00037501
 101        -0.00000000
 102         0.00000000
 103         0.00000538
 104        -0.00000000
 105         0.00000000
 106         0.00000603
 107        -0.00000000
 108        -0.00000000
 109        -0.00000000
 110         0.00000000
 111         0.00000000
 112        -0.00000000
 113        -0.00000000
 114        -0.00000000
 115        -0.00000000
 116        -0.00000000
 117         0.00000000
 118         0.00000000
 119         0.00000000
 120        -0.00000000
 121         0.00000000
 122        -0.00000000
 123         0.00000000
 124         0.00000000
 125        -0.00318385
 126         0.00038238
 127         0.00042981
 128        -0.00000000
 129        -0.00000000
 130         0.00000000
 131         0.00000000
 132         0.00000000
 133         0.00000000
 134        -0.00000000
 135         0.00000000
 136        -0.00000000
 137         0.00000000
 138         0.00000000
 139        -0.00335499
 140         0.00040293
 141         0.00045291
 142         0.00000000
 143         0.00000000
 144         0.00000000
 145        -0.00000000
 146         0.00000000
 147         0.00000000
 148        -0.00000000
 149         0.00000000
 150         0.00000000
 151         0.00000000
 152        -0.00000000
 153        -0.00335499
 154         0.00040293
 155         0.00045291
 156        -0.00000000
 157        -0.00000000
 158        -0.00000000
 159        -0.00000000
 160        -0.00000000
 161        -0.00000000
 162        -0.00000000
 163        -0.00000000
 164        -0.00000000
 165        -0.00000000
 166        -0.00000000
 167         0.00318385
 168        -0.00038238
 169        -0.00042981
 170         0.00000000
 171         0.00000000
 172        -0.00000000
 173        -0.00000000
 174         0.00000000
 175        -0.00000000
 176         0.00000000
 177         0.00000000
 178        -0.00000000
 179         0.00000000
 180        -0.00000000
 181         0.00335499
 182        -0.00040293
 183        -0.00045291
 184         0.00000000
 185        -0.00000000
 186        -0.00000000
 187        -0.00000000
 188        -0.00000000
 189         0.00000000
 190         0.00000000
 191         0.00000000
 192         0.00000000
 193        -0.00000000
 194         0.00000000
 195         0.00335499
 196        -0.00040293
 197        -0.00045291
 198         0.00000000
 199         0.00000000
 200         0.00000000
 201         0.00000000
 202         0.00000000
 203        -0.00000000
 204         0.00000000
 205         0.00000000
 206         0.00000000
 207        -0.00000000
 208        -0.00000000
Sym=     4a  
Ene=   -11.3300
Spin= Alpha
Occup=    2.00000
   1         0.44047654
   2        -0.00149473
   3        -0.00039486
   4         0.00143453
   5        -0.00000000
   6        -0.00175605
   7         0.00120185
   8         0.00000000
   9         0.00000250
  10        -0.00000171
  11         0.00000000
  12         0.00013430
  13        -0.00009192
  14        -0.00000000
  15        -0.00000000
  16        -0.00000000
  17         0.00000000
  18        -0.00000000
  19         0.00000000
  20        -0.00000000
  21        -0.00000000
  22        -0.00000000
  23        -0.00000000
  24        -0.00000000
  25        -0.00000000
  26        -0.00000000
  27         0.00000000
  28         0.00000000
  29         0.00000000
  30         0.00000000
  31        -0.78162313
  32         0.00163436
  33         0.00069385
  34        -0.00248579
  35         0.00000000
  36        -0.00000000
  37         0.00135888
  38        -0.00000000
  39         0.00000000
  40        -0.00000194
  41        -0.00000000
  42         0.00000000
  43        -0.00010393
  44         0.00000000
  45        -0.00000000
  46        -0.00000000
  47         0.00000000
  48         0.00000000
  49        -0.00000000
  50         0.00000000
  51         0.00000000
  52         0.00000000
  53        -0.00000000
  54         0.00000000
  55        -0.00000000
  56         0.00000000
  57        -0.00000000
  58         0.00000000
  59         0.00000000
  60         0.00000000
  61         0.44047654
  62        -0.00149473
  63        -0.00039486
  64         0.00143453
  65         0.00000000
  66         0.00175605
  67         0.00120185
  68        -0.00000000
  69        -0.00000250
  70        -0.00000171
  71        -0.00000000
  72        -0.00013430
  73        -0.00009192
  74        -0.00000000
  75        -0.00000000
  76         0.00000000
  77        -0.00000000
  78        -0.00000000
  79         0.00000000
  80         0.00000000
  81         0.00000000
  82        -0.00000000
  83        -0.00000000
  84        -0.00000000
  85        -0.00000000
  86         0.00000000
  87         0.00000000
  88         0.00000000
  89        -0.00000000
  90        -0.00000000
  91         0.00005118
  92        -0.00061326
  93        -0.00191954
  94        -0.00001578
  95        -0.00000907
  96        -0.00000000
  97         0.00000000
  98         0.00029763
  99         0.00000000
 100         0.00000000
 101        -0.00190477
 102        -0.00000000
 103        -0.00000000
 104        -0.00002904
 105         0.00000000
 106        -0.00000000
 107        -0.00003176
 108         0.00000000
 109         0.00000000
 110         0.00000000
 111        -0.00000000
 112         0.00000000
 113         0.00000000
 114        -0.00000000
 115         0.00000000
 116        -0.00000000
 117        -0.00000000
 118        -0.00000000
 119        -0.00000000
 120         0.00000000
 121         0.00000000
 122         0.00000000
 123        -0.00000000
 124         0.00000000
 125         0.00171823
 126        -0.00020636
 127        -0.00023195
 128         0.00000000
 129         0.00000000
 130         0.00000000
 131        -0.00000000
 132         0.00000000
 133         0.00000000
 134        -0.00000000
 135         0.00000000
 136         0.00000000
 137        -0.00000000
 138         0.00000000
 139         0.00157102
 140        -0.00018868
 141        -0.00021208
 142         0.00000000
 143        -0.00000000
 144        -0.00000000
 145         0.00000000
 146        -0.00000000
 147        -0.00000000
 148         0.00000000
 149        -0.00000000
 150         0.00000000
 151        -0.00000000
 152         0.00000000
 153         0.00157102
 154        -0.00018868
 155        -0.00021208
 156         0.00000000
 157        -0.00000000
 158        -0.00000000
 159         0.00000000
 160         0.00000000
 161         0.00000000
 162         0.00000000
 163         0.00000000
 164         0.00000000
 165        -0.00000000
 166         0.00000000
 167         0.00171823
 168        -0.00020636
 169        -0.00023195
 170         0.00000000
 171        -0.00000000
 172        -0.00000000
 173         0.00000000
 174        -0.00000000
 175        -0.00000000
 176         0.00000000
 177         0.00000000
 178        -0.00000000
 179        -0.00000000
 180        -0.00000000
 181         0.00157102
 182        -0.00018868
 183        -0.00021208
 184         0.00000000
 185         0.00000000
 186        -0.00000000
 187         0.00000000
 188        -0.00000000
 189        -0.00000000
 190         0.00000000
 191         0.00000000
 192        -0.00000000
 193        -0.00000000
 194        -0.00000000
 195         0.00157102
 196        -0.00018868
 197        -0.00021208
 198        -0.00000000
 199         0.00000000
 200         0.00000000
 201        -0.00000000
 202        -0.00000000
 203         0.00000000
 204        -0.00000000
 205        -0.00000000
 206        -0.00000000
 207         0.00000000
 208         0.00000000