   This run of MOLCAS is using the pymolcas driver

                             OPE
                             OPE          NMOL  CASOP  ENMOLC A   SO
                 OPE        NMOLC        AS  OP EN  MO LC     AS  OP
                OPENM       OL CA        SO  PE NM  OL CA     SOP EN
                OP EN      MO   LC       AS  OP ENMOL  CASO   PENMOL
                OP  EN     MO   LC       AS  OP EN     MO     LC ASO
               OP   E  NMOL  C  AS       OP  EN MO     LC     AS  OP
               OP  E   NMO   LC AS        OPEN  MO     LCASOP EN   M
               O  PEN   MO  LCA  SO
            OPE   NMO   L   CAS    OP
        OPENMOL  CASOP     ENMOL   CASOPE
     OPENMOLCA   SOPENMOLCASOPEN   MOLCASOPE
    OPENMOLCAS   OP           EN   MOL    CAS
    OPENMOLCAS       OP  ENM        O     LCA
    OPENMOLCAS    OPEN  MOLCASO     P  E  NMO
    OPENMOLCAS     OP               E  N  MOL
    OPENMOLCA   SO           PENM   O  L  CAS    OPEN    MO    LCAS
    OPENMOLCA   SOP           ENM   O  L  CAS   OP  EN  MOLC  AS   O
    OPENMOLCA   SOPE           NM      O  LCA   S      OP  EN MO
    OPENMOLC                AS         O  PEN   M      OL  CA  SOPE
    OPENMO        LCASOPE  NMOL        C  ASO   P      ENMOLC     AS
    OPE     NMO      LCA  SO     P     E   NM   OL  CA SO  PE N   MO
          OPENMOLCA            SOPE   NMO        LCAS  O    P  ENMO
     OPENMOLCASOPENMOLCASOPENMOLCASOPENMOLCA
        OPENMOLCASOPENMOLCASOPENMOLCASOPE
            OPENMOLCASOPENMOLCASOPENM
               OPENMOLCASOPENMOLCA        version: 23.06
                   OPENMOLCASO
                       OPE                tag: 105-gffc277a3d

 OpenMolcas is free software; you can redistribute it and/or modify it
 under the terms of the GNU Lesser General Public License version 2.1.
 OpenMolcas is distributed in the hope that it will be useful, but it
 is provided "as is" and without any express or implied warranties.
 For more details see the full text of the license in the file
 LICENSE or in <http://www.gnu.org/licenses/>.

                 Copyright (C) The OpenMolcas Authors
           For the author list and the recommended citation,
                   consult the file CONTRIBUTORS.md

           *************************************************
           * pymolcas version py2.25                       *
           *   build 835137438ff31f0b5f7e578ef8193798      *
           *   (after the EMIL interpreter by V. Veryazov) *
           *************************************************

configuration info
------------------
Host name: manganese.itc.univie.ac.at (Linux)
C Compiler ID: GNU
C flags: -std=gnu99
Fortran Compiler ID: Intel
Fortran flags: -fpp -i8 -heap-arrays
Definitions: _MOLCAS_;_I8_;_LINUX_
Parallel: OFF (GA=OFF)


   ----------------------------------------------------------------------
  |
  |           Project: MOLCAS
  |    Submitted from: /public/manganese/scratch/tmp/sascha.664377/master
  |      Scratch area: /public/manganese/scratch/tmp/sascha.664377/master
  |   Save outputs to: WORKDIR
  |            Molcas: /usr/license/openmolcas/v23.06
  |
  | Scratch area is NOT empty
  |
  |        MOLCASMEM = 2000
  |    MOLCAS_DRIVER = /usr/license/openmolcas/v23.06/pymolcas
  |    MOLCAS_NPROCS = 1
  |    MOLCAS_SOURCE = /usr/license/openmolcas/v23.06
  | MOLCAS_STRUCTURE = 0
  |
   ----------------------------------------------------------------------

++ ---------   Input file   ---------

&GATEWAY
COORD=MOLCAS.xyz
GROUP=NOSYM
BASIS=cc-pVTZ
AMFI
angmom
0 0 0
RICD
CDTHreshold=0.0001

&SEWARD

&RASSCF
SPIN=1
NACTEL=6 0 0
INACTIVE=17
RAS2=5
ITERATIONS=200,100
CIROOT=5 5 1
THRS=0.000000010000 0.000100000000 0.000100000000

&CASPT2
SHIFT=0.0
IMAGINARY= 0.100
IPEASHIFT= 0.25
MAXITER=120
MULTISTATE= 3 1 2 3
OUTPUT=BRIEF
PRWF=0.1

>>> COPY MOLCAS.JobMix MOLCAS.1.JobIph

&RASSCF
SPIN=2
NACTEL=5 0 0
INACTIVE=17
RAS2=5
ITERATIONS=200,100
CIROOT=2 2 1
THRS=0.000000010000 0.000100000000 0.000100000000

&CASPT2
SHIFT=0.0
IMAGINARY= 0.100
IPEASHIFT= 0.25
MAXITER=120
MULTISTATE= 1 1
OUTPUT=BRIEF
PRWF=0.1

>>> COPY MOLCAS.JobMix MOLCAS.2.JobIph

&RASSCF
SPIN=3
NACTEL=6 0 0
INACTIVE=17
RAS2=5
ITERATIONS=200,100
CIROOT=4 4 1
THRS=0.000000010000 0.000100000000 0.000100000000

&CASPT2
SHIFT=0.0
IMAGINARY= 0.100
IPEASHIFT= 0.25
MAXITER=120
MULTISTATE= 2 1 2
OUTPUT=BRIEF
PRWF=0.1

>>> COPY MOLCAS.JobMix MOLCAS.3.JobIph

&RASSCF
SPIN=4
NACTEL=5 0 0
INACTIVE=17
RAS2=5
ITERATIONS=200,100
CIROOT=2 2 1
THRS=0.000000010000 0.000100000000 0.000100000000

&CASPT2
SHIFT=0.0
IMAGINARY= 0.100
IPEASHIFT= 0.25
MAXITER=120
MULTISTATE= 1 1
OUTPUT=BRIEF
PRWF=0.1

>>> COPY MOLCAS.JobMix MOLCAS.4.JobIph

>>> COPY MOLCAS.1.JobIph JOB001

&RASSI
NROFJOBIPHS
1 3
1 2 3
MEIN
EJOB
TRD1

>>> COPY MOLCAS.rassi.h5 MOLCAS.rassi.1.h5

>>> COPY MOLCAS.2.JobIph JOB001

&RASSI
NROFJOBIPHS
1 1
1
MEIN
EJOB
TRD1

>>> COPY MOLCAS.rassi.h5 MOLCAS.rassi.2.h5

>>> COPY MOLCAS.3.JobIph JOB001

&RASSI
NROFJOBIPHS
1 2
1 2
MEIN
EJOB
TRD1

>>> COPY MOLCAS.rassi.h5 MOLCAS.rassi.3.h5

>>> COPY MOLCAS.4.JobIph JOB001

&RASSI
NROFJOBIPHS
1 1
1
MEIN
EJOB
TRD1

>>> COPY MOLCAS.rassi.h5 MOLCAS.rassi.4.h5

>>> COPY MOLCAS.1.JobIph JOB001

>>> COPY MOLCAS.2.JobIph JOB002

>>> COPY MOLCAS.3.JobIph JOB003

>>> COPY MOLCAS.4.JobIph JOB004

&RASSI
NROFJOBIPHS
4 3 1 2 1
1 2 3
1
1 2
1
MEIN
EJOB
SPINORBIT
SOCOUPLING=0.0d0
EJOB

>>> COPY MOLCAS.rassi.h5 MOLCAS.rassi.h5.bak

>>> COPY MOLCAS.1.JobIph JOB001

>>> COPY MOLCAS.3.JobIph JOB002

&RASSI
NROFJOBIPHS
2 3 2
1 2 3
1 2
MEIN
EJOB
TRD1

>>> COPY MOLCAS.rassi.h5 MOLCAS.rassi.trd1.h5

>>> COPY MOLCAS.rassi.h5.bak MOLCAS.rassi.h5

>>> COPY MOLCAS.2.JobIph JOB001

>>> COPY MOLCAS.4.JobIph JOB002

&RASSI
NROFJOBIPHS
2 1 1
1
1
MEIN
EJOB
TRD1

>>> COPY MOLCAS.rassi.h5 MOLCAS.rassi.trd2.h5

>>> COPY MOLCAS.rassi.h5.bak MOLCAS.rassi.h5

>>> COPY MOLCAS.rassi.h5.bak MOLCAS.rassi.h5

-- ----------------------------------

--- Start Module: gateway at Wed May 29 11:39:39 2024 ---
 
()()()()()()()()()()()()()()()()()()()()()()()()()()()()()()()()()()()()()()()()()()()()()()()()()()

                                              &GATEWAY

                                   only a single process is used
                       available to each process: 2.0 GB of memory, 1 thread?
                                            pid: 3306971
()()()()()()()()()()()()()()()()()()()()()()()()()()()()()()()()()()()()()()()()()()()()()()()()()()
 
 
++    Symmetry information:
      ---------------------
 
                    Character Table for C1 
 
                             E  
                    a        1  x, y, xy, Rz, z, xz, Ry, yz, Rx, I
--
 
 
++    Basis set information:
      ----------------------
 
 
      Basis set label: C.CC-PVTZ.........
 
      Electronic valence basis set:
      ------------------
      Associated Effective Charge   6.000000 au
      Associated Actual Charge      6.000000 au
      Nuclear Model: Point charge
 
      Shell  nPrim  nBasis  Cartesian Spherical Contaminant
         s      10       4        X                  
         p       5       3        X                  
         d       2       2                 X         
         f       1       1                 X         
 
 
      Basis set label: S.CC-PVTZ.........
 
      Electronic valence basis set:
      ------------------
      Associated Effective Charge  16.000000 au
      Associated Actual Charge     16.000000 au
      Nuclear Model: Point charge
 
      Shell  nPrim  nBasis  Cartesian Spherical Contaminant
         s      15       5        X                  
         p       9       4        X                  
         d       2       2                 X         
         f       1       1                 X         
 
 
      Basis set label: H.CC-PVTZ.........
 
      Electronic valence basis set:
      ------------------
      Associated Effective Charge   1.000000 au
      Associated Actual Charge      1.000000 au
      Nuclear Model: Point charge
 
      Shell  nPrim  nBasis  Cartesian Spherical Contaminant
         s       5       3        X                  
         p       2       2        X                  
         d       1       1                 X         
--
 
 
++    Molecular structure info:
      -------------------------
 
                    ************************************************ 
                    **** Cartesian Coordinates / Bohr, Angstrom **** 
                    ************************************************ 
 
     Center  Label                x              y              z                     x              y              z
        1      C1               0.000000      -2.426068       2.171522              0.000000      -1.283820       1.149120
        2      C2               0.000000       0.000000       0.702562              0.000000       0.000000       0.371780
        3      C3               0.000000       2.426068       2.171522              0.000000       1.283820       1.149120
        4      S4               0.000000       0.000000      -2.363121              0.000000       0.000000      -1.250510
        5      H5               0.000000      -2.111920       4.195551              0.000000      -1.117580       2.220190
        6      H6               1.646859      -3.540100       1.665850              0.871480      -1.873340       0.881530
        7      H7              -1.646859      -3.540100       1.665850             -0.871480      -1.873340       0.881530
        8      H8               0.000000       2.111920       4.195551              0.000000       1.117580       2.220190
        9      H9              -1.646859       3.540100       1.665850             -0.871480       1.873340       0.881530
       10      H10              1.646859       3.540100       1.665850              0.871480       1.873340       0.881530
 
                    *************************************** 
                    *    InterNuclear Distances / Bohr    * 
                    *************************************** 
 
               1 C1            2 C2            3 C3            4 S4            5 H5            6 H6    
    1 C1       0.000000
    2 C2       2.836133        0.000000
    3 C3       4.852136        2.836133        0.000000
    4 S4       5.142840        3.065684        5.142840        0.000000
    5 H5       2.048263        4.081810        4.968906        6.890311        0.000000
    6 H6       2.051564        4.021489        6.209912        5.610442        3.339345        0.000000
    7 H7       2.051564        4.021489        6.209912        5.610442        3.339345        3.293717
    8 H8       4.968906        4.081810        2.048263        6.890311        4.223840        6.407562
    9 H9       6.209912        4.021489        2.051564        5.610442        6.407562        7.808828
   10 H10      6.209912        4.021489        2.051564        5.610442        6.407562        7.080199
 
               7 H7            8 H8            9 H9           10 H10   
    7 H7       0.000000
    8 H8       6.407562        0.000000
    9 H9       7.080199        3.339345        0.000000
   10 H10      7.808828        3.339345        3.293717        0.000000
 
                    ******************************************* 
                    *    InterNuclear Distances / Angstrom    * 
                    ******************************************* 
 
               1 C1            2 C2            3 C3            4 S4            5 H5            6 H6    
    1 C1       0.000000
    2 C2       1.500817        0.000000
    3 C3       2.567640        1.500817        0.000000
    4 S4       2.721473        1.622290        2.721473        0.000000
    5 H5       1.083894        2.160001        2.629432        3.646196        0.000000
    6 H6       1.085641        2.128080        3.286144        2.968918        1.767105        0.000000
    7 H7       1.085641        2.128080        3.286144        2.968918        1.767105        1.742960
    8 H8       2.629432        2.160001        1.083894        3.646196        2.235160        3.390736
    9 H9       3.286144        2.128080        1.085641        2.968918        3.390736        4.132254
   10 H10      3.286144        2.128080        1.085641        2.968918        3.390736        3.746680
 
               7 H7            8 H8            9 H9           10 H10   
    7 H7       0.000000
    8 H8       3.390736        0.000000
    9 H9       3.746680        1.767105        0.000000
   10 H10      4.132254        1.767105        1.742960        0.000000
 
                    ************************************** 
                    *    Valence Bond Angles / Degree    * 
                    ************************************** 
                          Atom centers                 Phi
                      2 C2       1 C1       5 H5       112.37
                      2 C2       1 C1       6 H6       109.68
                      2 C2       1 C1       7 H7       109.68
                      5 H5       1 C1       6 H6       109.08
                      5 H5       1 C1       7 H7       109.08
                      6 H6       1 C1       7 H7       106.78
                      1 C1       2 C2       3 C3       117.61
                      2 C2       3 C3       8 H8       112.37
                      2 C2       3 C3       9 H9       109.68
                      2 C2       3 C3      10 H10      109.68
                      8 H8       3 C3       9 H9       109.08
                      8 H8       3 C3      10 H10      109.08
                      9 H9       3 C3      10 H10      106.78
 
           ***************************************************************
           *              Valence Dihedral Angles / Degree               *
           ***************************************************************
                    Atom centers                       Phi1     Phi2     Theta 
           3 C3       2 C2       1 C1       5 H5        117.61   112.37     0.00
           3 C3       2 C2       1 C1       6 H6        117.61   109.68  -121.51
           3 C3       2 C2       1 C1       7 H7        117.61   109.68   121.51
           1 C1       2 C2       3 C3       8 H8        117.61   112.37     0.00
           1 C1       2 C2       3 C3       9 H9        117.61   109.68  -121.51
           1 C1       2 C2       3 C3      10 H10       117.61   109.68   121.51
--
 
 
            Nuclear Potential Energy            153.45474550 au
 
--- Stop Module: gateway at Wed May 29 11:39:40 2024 /rc=_RC_ALL_IS_WELL_ ---
--- Module gateway spent 1 second ---

--- Start Module: seward at Wed May 29 11:39:40 2024 ---
 
()()()()()()()()()()()()()()()()()()()()()()()()()()()()()()()()()()()()()()()()()()()()()()()()()()

                                              &SEWARD

                                   only a single process is used
                       available to each process: 2.0 GB of memory, 1 thread?
                                            pid: 3306977
()()()()()()()()()()()()()()()()()()()()()()()()()()()()()()()()()()()()()()()()()()()()()()()()()()
 
               SEWARD will generate:
                  Multipole Moment integrals up to order  2
                  Kinetic Energy integrals
                  Nuclear Attraction integrals (point charge)
                  One-Electron Hamiltonian integrals
                  Velocity integrals
                  Orbital angular momentum around ( 0.0000  0.0000  0.0000 )
                  Velocity quadrupole around ( 0.0000  0.0000  0.0022 )
                  Atomic mean-field integrals
                  RI decomposed two-electron repulsion integrals stored Cholesky style
                   - acCD auxiliary basis
                   - CD Threshold:   0.10E-03
 
                   Integrals are discarded if absolute value <: 0.10E-13
                   Integral cutoff threshold is set to       <: 0.10E-15
 
            Nuclear Potential Energy            153.45474550 au
 
 
      Basis set specifications :
      Symmetry species         a  
      Basis functions          208
 
 
      Input file to MOLDEN was generated!
 
--- Stop Module: seward at Wed May 29 11:39:47 2024 /rc=_RC_ALL_IS_WELL_ ---
--- Module seward spent 6 seconds ---

*** symbolic link created: INPORB -> MOLCAS.GssOrb
--- Start Module: rasscf at Wed May 29 11:39:47 2024 ---
 
()()()()()()()()()()()()()()()()()()()()()()()()()()()()()()()()()()()()()()()()()()()()()()()()()()

                                              &RASSCF

                                   only a single process is used
                       available to each process: 2.0 GB of memory, 1 thread?
                                            pid: 3307101
()()()()()()()()()()()()()()()()()()()()()()()()()()()()()()()()()()()()()()()()()()()()()()()()()()
 
 
      Header of the ONEINT file:
      --------------------------
      
      Integrals generated by Gateway/Seward, Wed May 29 11:39:40 2024
 
 
      OrdInt status: non-squared
 
 
      Cartesian coordinates in Angstrom:
      -----------------------------------------------------
      No.  Label        X            Y            Z        
      -----------------------------------------------------
       1   C1         0.00000000  -1.28382000   1.14912000
       2   C2         0.00000000   0.00000000   0.37178000
       3   C3         0.00000000   1.28382000   1.14912000
       4   S4         0.00000000   0.00000000  -1.25051000
       5   H5         0.00000000  -1.11758000   2.22019000
       6   H6         0.87148000  -1.87334000   0.88153000
       7   H7        -0.87148000  -1.87334000   0.88153000
       8   H8         0.00000000   1.11758000   2.22019000
       9   H9        -0.87148000   1.87334000   0.88153000
      10   H10        0.87148000   1.87334000   0.88153000
      -----------------------------------------------------
      Nuclear repulsion energy =  153.45474550
 
++    Wave function specifications:
      -----------------------------
 
      Number of closed shell electrons          34
      Number of electrons in active shells       6
      Max number of holes in RAS1 space          0
      Max nr of electrons in RAS3 space          0
      Number of inactive orbitals               17
      Number of active orbitals                  5
      Number of secondary orbitals             186
      Spin quantum number                      0.0
      State symmetry                             1
--
 
++    Orbital specifications:
      -----------------------
 
      Symmetry species                           1
                                                 a
      Frozen orbitals                            0
      Inactive orbitals                         17
      Active orbitals                            5
      RAS1 orbitals                              0
      RAS2 orbitals                              5
      RAS3 orbitals                              0
      Secondary orbitals                       186
      Deleted orbitals                           0
      Number of basis functions                208
--
 
++    CI expansion specifications:
      ----------------------------
 
      Number of CSFs                            50
      Number of determinants                    55
      Number of root(s) required                 5
      Root chosen for geometry opt.              5
      CI roots used                              1     2     3     4     5
      weights                                0.200 0.200 0.200 0.200 0.200
      highest root included in the CI            5
      max. size of the explicit Hamiltonian     50
--
 
++    Optimization specifications:
      ----------------------------
 
      RASSCF algorithm: LK RI/DF
      Maximum number of macro iterations       200
      Maximum number of SX iterations          100
      Threshold for RASSCF energy            0.100E-07
      Threshold for max MO rotation          0.100E-03
      Threshold for max BLB element          0.100E-03
      Level shift parameter                  0.500E+00
      Make Quasi-Newton update
--
 
      Orbitals from runfile: guessorb orbitals
      The MO-coefficients are taken from guessorb on runfile
 
      Total molecular charge    0.00
 
      ************************************************************************************************************************
      *                                                                                                                      *
      *                                            Wave function control section                                             *
      *                                                                                                                      *
      ************************************************************************************************************************
 
 
                                         RASSCF iterations: Energy and convergence statistics
                                         ----------------------------------------------------
 
      Iter CI   SX   CI       RASSCF       Energy    max ROT     max BLB   max BLB  Level Ln srch  Step   QN   Walltime
          iter iter root      energy       change     param      element    value   shift minimum  type update hh:mm:ss
 Nr of preliminary CI iterations:   1
        1   1  100    0  -514.12989703    0.00E+00  -0.46E+00*  10  30 1 -0.24E+00*  0.26   0.00    SX    NO    0:00:06
        2   1   41    0  -514.44731255   -0.32E+00* -0.17E+00*   9  27 1  0.50E-01*  0.27   0.00    SX    NO    0:00:02
        3   1   14    0  -514.49220726   -0.45E-01* -0.73E-01*  13  23 1 -0.28E-01*  0.25   0.00    SX    NO    0:00:02
        4   1   10    0  -514.50188280   -0.97E-02* -0.34E-01*  17  24 1 -0.13E-01*  0.25   0.00    SX    NO    0:00:02
        5   1   10    0  -514.50404418   -0.22E-02* -0.27E-01*  17  24 1 -0.73E-02*  0.24   1.91    LS   YES    0:00:02
        6   1   10    0  -514.50471993   -0.68E-03* -0.80E-02*  15  24 1  0.30E-02*  0.24   1.20    QN   YES    0:00:02
        7   1    9    0  -514.50481896   -0.99E-04*  0.39E-02*  11  22 1  0.12E-02*  0.24   1.31    QN   YES    0:00:02
        8   1    8    0  -514.50484079   -0.22E-04*  0.23E-02*  17  20 1  0.42E-03*  0.24   1.31    QN   YES    0:00:02
        9   1    8    0  -514.50484413   -0.33E-05*  0.11E-02*  13  23 1  0.28E-03*  0.24   1.29    QN   YES    0:00:02
       10   1    8    0  -514.50484491   -0.77E-06*  0.45E-03*  11  22 1 -0.12E-03*  0.24   1.40    QN   YES    0:00:02
       11   1    7    0  -514.50484507   -0.16E-06*  0.13E-03*  10  30 1 -0.42E-04   0.24   1.30    QN   YES    0:00:02
       12   1    6    0  -514.50484509   -0.19E-07*  0.49E-04   14  23 1 -0.18E-04   0.24   1.21    QN   YES    0:00:02
       13   1    5    0  -514.50484509   -0.29E-08  -0.41E-04   11  22 1  0.70E-05   0.24   1.60    QN   YES    0:00:02
      Convergence after 13 iterations
       14   1    5    0  -514.50484509   -0.10E-08  -0.41E-04   10  30 1  0.33E-05   0.24   1.60    QN   YES    0:00:02
 
      ************************************************************************************************************************
                                                      Wave function printout:
                       occupation of active orbitals, and spin coupling of open shells (u,d: Spin up or down)
      ************************************************************************************************************************
 
      Note: transformation to natural orbitals
      has been made, which may change the order of the CSFs.
 
      printout of CI-coefficients larger than  0.05 for root  1
      energy=    -514.698945
      conf/sym  11111     Coeff  Weight
             1  22200  -0.89914 0.80846
             7  2u2d0  -0.39831 0.15865
            17  u220d   0.08050 0.00648
            23  20220   0.10599 0.01123
            30  ud2ud  -0.05030 0.00253
            38  02202   0.06150 0.00378
            41  uu2dd  -0.06601 0.00436
 
      printout of CI-coefficients larger than  0.05 for root  2
      energy=    -514.601860
      conf/sym  11111     Coeff  Weight
             2  22ud0  -0.99188 0.98382
             8  2ud20   0.05714 0.00326
            39  02ud2   0.07907 0.00625
            42  uud2d  -0.05948 0.00354
 
      printout of CI-coefficients larger than  0.05 for root  3
      energy=    -514.455119
      conf/sym  11111     Coeff  Weight
             1  22200  -0.37015 0.13701
             3  22020  -0.09577 0.00917
             7  2u2d0   0.88507 0.78335
            17  u220d   0.23306 0.05431
            44  u022d   0.09561 0.00914
 
      printout of CI-coefficients larger than  0.05 for root  4
      energy=    -514.410488
      conf/sym  11111     Coeff  Weight
            15  u22d0   0.99153 0.98312
            29  ud220   0.08654 0.00749
            47  0u22d   0.07409 0.00549
 
      printout of CI-coefficients larger than  0.05 for root  5
      energy=    -514.357814
      conf/sym  11111     Coeff  Weight
             3  22020   0.95844 0.91861
             7  2u2d0   0.09346 0.00873
            20  u202d   0.18182 0.03306
            23  20220  -0.16694 0.02787
            35  02220  -0.06407 0.00411
            40  02022  -0.05169 0.00267
 
      Natural orbitals and occupation numbers for root  1
      sym 1:   1.975168   1.920980   1.998416   0.080118   0.025318
 
      Natural orbitals and occupation numbers for root  2
      sym 1:   1.981327   1.993844   1.000000   1.004859   0.019970
 
      Natural orbitals and occupation numbers for root  3
      sym 1:   1.941763   1.488291   1.979540   0.531600   0.058805
 
      Natural orbitals and occupation numbers for root  4
      sym 1:   0.996133   1.991389   1.998264   1.004119   0.010096
 
      Natural orbitals and occupation numbers for root  5
      sym 1:   1.978543   1.920842   0.088873   1.995913   0.015829
 
      ************************************************************************************************************************
      *                                                                                                                      *
      *                                                    Final results                                                     *
      *                                                                                                                      *
      ************************************************************************************************************************
 
 
++    Wave function specifications:
      -----------------------------
 
      Number of closed shell electrons          34
      Number of electrons in active shells       6
      Max number of holes in RAS1 space          0
      Max nr of electrons in RAS3 space          0
      Number of inactive orbitals               17
      Number of active orbitals                  5
      Number of secondary orbitals             186
      Spin quantum number                      0.0
      State symmetry                             1
--
 
++    Orbital specifications:
      -----------------------
 
      Symmetry species                           1
                                                 a
      Frozen orbitals                            0
      Inactive orbitals                         17
      Active orbitals                            5
      RAS1 orbitals                              0
      RAS2 orbitals                              5
      RAS3 orbitals                              0
      Secondary orbitals                       186
      Deleted orbitals                           0
      Number of basis functions                208
--
 
++    CI expansion specifications:
      ----------------------------
 
      Number of CSFs                            50
      Number of determinants                    55
      Number of root(s) required                 5
      CI roots used                              1     2     3     4     5
      weights                                0.200 0.200 0.200 0.200 0.200
      highest root included in the CI            5
      Root passed to geometry opt.               5
--
 
++    Final optimization conditions:
      ------------------------------
 
      Average CI energy                            -514.50484509
      RASSCF energy for state  5                   -514.35781367
      Super-CI energy                                -0.00000000
      RASSCF energy change                           -0.00000000
      Max change in MO coefficients              -0.614E-04
      Max non-diagonal density matrix element    -0.405E-04
      Maximum BLB matrix element                  0.331E-05
      (orbital pair  10,  30 in symmetry   1)
      Norm of electronic gradient            0.263E+00
--
 
 
      Final state energy(ies):
      ------------------------
 
::    RASSCF root number  1 Total energy:   -514.69894539
::    RASSCF root number  2 Total energy:   -514.60185989
::    RASSCF root number  3 Total energy:   -514.45511895
::    RASSCF root number  4 Total energy:   -514.41048757
::    RASSCF root number  5 Total energy:   -514.35781367
 
++    Molecular orbitals:
      -------------------
 
      Pseudonatural active orbitals and approximate occupation numbers
 
 
 
 
      Molecular orbitals for symmetry species 1: a  
 
 
      Orbital                 1         2         3         4         5         6         7         8         9        10
      Energy           -91.9675  -11.2604  -11.2357  -11.2356   -8.9710   -6.6514   -6.6501   -6.6492   -1.1038   -0.9586
      Occ. No.           2.0000    2.0000    2.0000    2.0000    2.0000    2.0000    2.0000    2.0000    2.0000    2.0000
 
     1 C1     1s        -0.0000   -0.0133   -0.7069    0.7067    0.0001    0.0002   -0.0002   -0.0000   -0.0088    0.0102
     2 C1     2s        -0.0000    0.0001   -0.0025    0.0022    0.0002    0.0005   -0.0007   -0.0000    0.3658   -0.5563
     3 C1     *s         0.0000   -0.0002   -0.0010    0.0011    0.0000   -0.0001    0.0000    0.0000   -0.0097    0.0145
     4 C1     *s         0.0000    0.0015   -0.0032    0.0021   -0.0006    0.0040    0.0048   -0.0000   -0.0853    0.0807
     5 C1     2px       -0.0000   -0.0000   -0.0000   -0.0000   -0.0000    0.0000    0.0000   -0.0001    0.0000   -0.0000
     6 C1     *px        0.0000   -0.0000    0.0000   -0.0000    0.0000   -0.0000   -0.0000    0.0001   -0.0000   -0.0000
     7 C1     *px        0.0000    0.0000   -0.0000    0.0000    0.0000   -0.0000   -0.0000    0.0001   -0.0000   -0.0000
     8 C1     2py       -0.0000   -0.0005   -0.0004    0.0005    0.0000   -0.0002    0.0001   -0.0000    0.0818    0.0287
     9 C1     *py        0.0000    0.0003    0.0007   -0.0008   -0.0001   -0.0008    0.0001    0.0000   -0.0089   -0.0027
    10 C1     *py        0.0000    0.0011   -0.0002   -0.0002   -0.0004    0.0011    0.0015   -0.0000   -0.0270   -0.0059
    11 C1     2pz        0.0000    0.0004    0.0003   -0.0002   -0.0001    0.0002   -0.0000   -0.0000   -0.0543    0.0114
    12 C1     *pz       -0.0000   -0.0003   -0.0003    0.0002    0.0004   -0.0001    0.0000    0.0000    0.0049   -0.0010
    13 C1     *pz       -0.0000   -0.0004    0.0003   -0.0002    0.0002    0.0002   -0.0016   -0.0000    0.0146   -0.0044
    14 C1     *d2-      -0.0000   -0.0000   -0.0000    0.0000   -0.0000    0.0000    0.0000   -0.0000    0.0000    0.0000
    15 C1     *d2-      -0.0000    0.0000   -0.0000   -0.0000   -0.0000    0.0000   -0.0000    0.0003   -0.0000    0.0000
    16 C1     *d1-       0.0000   -0.0000   -0.0001    0.0001    0.0000    0.0000    0.0000    0.0000   -0.0031    0.0005
    17 C1     *d1-       0.0000   -0.0005   -0.0002    0.0001    0.0002    0.0003   -0.0004    0.0000   -0.0022    0.0003
    18 C1     *d0       -0.0000    0.0000   -0.0000    0.0000   -0.0000   -0.0000    0.0000   -0.0000   -0.0005   -0.0008
    19 C1     *d0       -0.0000   -0.0001    0.0002    0.0001    0.0000   -0.0005    0.0002    0.0000   -0.0020   -0.0018
    20 C1     *d1+       0.0000    0.0000   -0.0000   -0.0000    0.0000    0.0000   -0.0000   -0.0000    0.0000    0.0000
    21 C1     *d1+      -0.0000   -0.0000    0.0000    0.0000   -0.0000    0.0000    0.0000   -0.0000    0.0000    0.0000
    22 C1     *d2+       0.0000   -0.0000   -0.0001    0.0000    0.0000    0.0001   -0.0000   -0.0000   -0.0030   -0.0004
    23 C1     *d2+      -0.0000   -0.0001   -0.0001    0.0002   -0.0000    0.0003   -0.0001   -0.0000   -0.0027   -0.0017
    24 C1     *f3-      -0.0000   -0.0001    0.0004   -0.0004    0.0000   -0.0001   -0.0000    0.0000   -0.0037    0.0043
    25 C1     *f2-       0.0000   -0.0000    0.0000   -0.0000    0.0000   -0.0000    0.0000    0.0000    0.0000   -0.0000
    26 C1     *f1-       0.0000    0.0000   -0.0002    0.0002   -0.0000   -0.0001    0.0001    0.0000    0.0016   -0.0030
    27 C1     *f0       -0.0000    0.0001   -0.0004    0.0005    0.0000    0.0001   -0.0001   -0.0000    0.0028   -0.0049
    28 C1     *f1+       0.0000    0.0000    0.0000    0.0000    0.0000    0.0000   -0.0000   -0.0000   -0.0000    0.0000
    29 C1     *f2+      -0.0000    0.0003    0.0000    0.0000   -0.0000   -0.0000    0.0001    0.0000    0.0012   -0.0020
    30 C1     *f3+       0.0000   -0.0000   -0.0000   -0.0000    0.0000    0.0000    0.0000   -0.0000    0.0000    0.0000
    31 C2     1s        -0.0000   -0.9986    0.0000   -0.0190   -0.0001    0.0001    0.0000   -0.0000   -0.0139    0.0000
    32 C2     2s        -0.0001   -0.0002   -0.0000    0.0006    0.0008    0.0022    0.0000   -0.0000    0.5669    0.0000
    33 C2     *s         0.0000   -0.0022   -0.0000    0.0001    0.0000   -0.0000    0.0000    0.0000   -0.0149   -0.0000
    34 C2     *s        -0.0001   -0.0023    0.0000   -0.0009   -0.0000    0.0039   -0.0000   -0.0000   -0.1272    0.0000
    35 C2     2px        0.0000   -0.0000   -0.0000    0.0000   -0.0000   -0.0000   -0.0000    0.0002   -0.0000   -0.0000
    36 C2     *px       -0.0000   -0.0000    0.0000    0.0000   -0.0000   -0.0000   -0.0000    0.0001    0.0000   -0.0000
    37 C2     *px       -0.0000   -0.0000   -0.0000   -0.0000   -0.0000    0.0000    0.0000   -0.0002    0.0000    0.0000
    38 C2     2py       -0.0000   -0.0000    0.0009    0.0000    0.0000   -0.0000    0.0000   -0.0000   -0.0000    0.2486
    39 C2     *py        0.0000    0.0000   -0.0004   -0.0000   -0.0000   -0.0000    0.0001    0.0000   -0.0000   -0.0159
    40 C2     *py       -0.0000    0.0000   -0.0015   -0.0000   -0.0000   -0.0000    0.0072    0.0000   -0.0000   -0.0741
    41 C2     2pz       -0.0000    0.0025   -0.0000    0.0005   -0.0007   -0.0023    0.0000   -0.0000    0.0183    0.0000
    42 C2     *pz        0.0001   -0.0026    0.0000   -0.0004    0.0002   -0.0007   -0.0000    0.0000   -0.0022   -0.0000
    43 C2     *pz       -0.0000   -0.0023    0.0000   -0.0011    0.0016   -0.0079   -0.0000    0.0000    0.0121   -0.0000
    44 C2     *d2-      -0.0000    0.0000    0.0000   -0.0000   -0.0000   -0.0000    0.0000    0.0000    0.0000    0.0000
    45 C2     *d2-       0.0000   -0.0000   -0.0000   -0.0000    0.0000    0.0000   -0.0000   -0.0000   -0.0000    0.0000
    46 C2     *d1-      -0.0000    0.0000    0.0000    0.0000   -0.0000   -0.0000    0.0000    0.0000    0.0000    0.0072
    47 C2     *d1-       0.0000    0.0000   -0.0007   -0.0000   -0.0000    0.0000   -0.0008    0.0000   -0.0000    0.0040
    48 C2     *d0       -0.0000   -0.0003    0.0000   -0.0001    0.0001    0.0001   -0.0000    0.0000    0.0057   -0.0000
    49 C2     *d0       -0.0000    0.0009   -0.0000    0.0005   -0.0004    0.0005    0.0000   -0.0000    0.0062    0.0000
    50 C2     *d1+      -0.0000   -0.0000    0.0000   -0.0000   -0.0000   -0.0000   -0.0000   -0.0000    0.0000    0.0000
    51 C2     *d1+       0.0000   -0.0000   -0.0000    0.0000    0.0000   -0.0000    0.0000   -0.0007    0.0000   -0.0000
    52 C2     *d2+      -0.0000    0.0003   -0.0000    0.0001    0.0000    0.0001   -0.0000   -0.0000   -0.0088    0.0000
    53 C2     *d2+       0.0000    0.0003   -0.0000    0.0002   -0.0003   -0.0006    0.0000   -0.0000   -0.0112   -0.0000
    54 C2     *f3-      -0.0000   -0.0000    0.0002    0.0000    0.0000   -0.0000   -0.0001   -0.0000    0.0000   -0.0017
    55 C2     *f2-       0.0000   -0.0000    0.0000   -0.0000   -0.0000    0.0000   -0.0000   -0.0000   -0.0000    0.0000
    56 C2     *f1-       0.0000    0.0000   -0.0001   -0.0000   -0.0000    0.0000   -0.0000    0.0000   -0.0000    0.0013
    57 C2     *f0       -0.0000    0.0002   -0.0000    0.0002    0.0001    0.0003    0.0000    0.0000   -0.0066   -0.0000
    58 C2     *f1+      -0.0000   -0.0000   -0.0000   -0.0000   -0.0000   -0.0000   -0.0000   -0.0000   -0.0000   -0.0000
    59 C2     *f2+      -0.0000    0.0003   -0.0000    0.0003   -0.0000   -0.0000    0.0000   -0.0000   -0.0046   -0.0000
    60 C2     *f3+      -0.0000    0.0000    0.0000   -0.0000    0.0000   -0.0000   -0.0000    0.0000   -0.0000    0.0000
    61 C3     1s        -0.0000   -0.0133    0.7069    0.7067    0.0001    0.0002    0.0002   -0.0000   -0.0088   -0.0102
    62 C3     2s        -0.0000    0.0001    0.0025    0.0022    0.0002    0.0005    0.0007   -0.0000    0.3658    0.5563
    63 C3     *s         0.0000   -0.0002    0.0010    0.0011    0.0000   -0.0001   -0.0000    0.0000   -0.0097   -0.0145
    64 C3     *s         0.0000    0.0015    0.0032    0.0021   -0.0006    0.0040   -0.0048   -0.0000   -0.0853   -0.0807
    65 C3     2px        0.0000    0.0000   -0.0000   -0.0000   -0.0000    0.0000   -0.0000   -0.0001    0.0000   -0.0000
    66 C3     *px       -0.0000   -0.0000    0.0000    0.0000    0.0000   -0.0000    0.0000    0.0001    0.0000    0.0000
    67 C3     *px       -0.0000   -0.0000    0.0000    0.0000    0.0000   -0.0000    0.0000    0.0001    0.0000    0.0000
    68 C3     2py        0.0000    0.0005   -0.0004   -0.0005   -0.0000    0.0002    0.0001   -0.0000   -0.0818    0.0287
    69 C3     *py       -0.0000   -0.0003    0.0007    0.0008    0.0001    0.0008    0.0001   -0.0000    0.0089   -0.0027
    70 C3     *py       -0.0000   -0.0011   -0.0002    0.0002    0.0004   -0.0011    0.0015    0.0000    0.0270   -0.0059
    71 C3     2pz        0.0000    0.0004   -0.0003   -0.0002   -0.0001    0.0002    0.0000   -0.0000   -0.0543   -0.0114
    72 C3     *pz       -0.0000   -0.0003    0.0003    0.0002    0.0004   -0.0001   -0.0000    0.0000    0.0049    0.0010
    73 C3     *pz       -0.0000   -0.0004   -0.0003   -0.0002    0.0002    0.0002    0.0016    0.0000    0.0146    0.0044
    74 C3     *d2-      -0.0000   -0.0000    0.0000    0.0000    0.0000   -0.0000   -0.0000    0.0000    0.0000    0.0000
    75 C3     *d2-      -0.0000   -0.0000    0.0000    0.0000    0.0000   -0.0000   -0.0000   -0.0003    0.0000    0.0000
    76 C3     *d1-      -0.0000    0.0000   -0.0001   -0.0001   -0.0000   -0.0000    0.0000    0.0000    0.0031    0.0005
    77 C3     *d1-      -0.0000    0.0005   -0.0002   -0.0001   -0.0002   -0.0003   -0.0004   -0.0000    0.0022    0.0003
    78 C3     *d0       -0.0000    0.0000    0.0000    0.0000   -0.0000   -0.0000   -0.0000   -0.0000   -0.0005    0.0008
    79 C3     *d0       -0.0000   -0.0001   -0.0002    0.0001    0.0000   -0.0005   -0.0002    0.0000   -0.0020    0.0018
    80 C3     *d1+       0.0000    0.0000   -0.0000   -0.0000   -0.0000    0.0000    0.0000   -0.0000   -0.0000   -0.0000
    81 C3     *d1+       0.0000   -0.0000   -0.0000   -0.0000   -0.0000    0.0000   -0.0000   -0.0000   -0.0000   -0.0000
    82 C3     *d2+       0.0000   -0.0000    0.0001    0.0000    0.0000    0.0001    0.0000   -0.0000   -0.0030    0.0004
    83 C3     *d2+      -0.0000   -0.0001    0.0001    0.0002   -0.0000    0.0003    0.0001   -0.0000   -0.0027    0.0017
    84 C3     *f3-       0.0000    0.0001    0.0004    0.0004   -0.0000    0.0001   -0.0000   -0.0000    0.0037    0.0043
    85 C3     *f2-       0.0000    0.0000   -0.0000   -0.0000   -0.0000    0.0000    0.0000   -0.0000   -0.0000   -0.0000
    86 C3     *f1-      -0.0000   -0.0000   -0.0002   -0.0002    0.0000    0.0001    0.0001    0.0000   -0.0016   -0.0030
    87 C3     *f0       -0.0000    0.0001    0.0004    0.0005    0.0000    0.0001    0.0001   -0.0000    0.0028    0.0049
    88 C3     *f1+       0.0000    0.0000   -0.0000   -0.0000    0.0000    0.0000    0.0000   -0.0000   -0.0000   -0.0000
    89 C3     *f2+      -0.0000    0.0003   -0.0000    0.0000   -0.0000   -0.0000   -0.0001   -0.0000    0.0012    0.0020
    90 C3     *f3+       0.0000   -0.0000   -0.0000   -0.0000    0.0000    0.0000    0.0000   -0.0000    0.0000   -0.0000
    91 S4     1s         1.0000   -0.0001    0.0000   -0.0000   -0.0002   -0.0000    0.0000   -0.0000   -0.0005   -0.0000
    92 S4     2s         0.0001   -0.0007    0.0000   -0.0000    0.9991   -0.0036    0.0000   -0.0000   -0.0087   -0.0000
    93 S4     3s         0.0001   -0.0014    0.0000   -0.0001   -0.0007    0.0025    0.0000   -0.0000    0.4133    0.0000
    94 S4     *s        -0.0001    0.0004   -0.0000    0.0001    0.0009    0.0012   -0.0000   -0.0000   -0.0027    0.0000
    95 S4     *s        -0.0000   -0.0003    0.0000   -0.0013    0.0020   -0.0125   -0.0000    0.0000   -0.0268   -0.0000
    96 S4     2px        0.0000   -0.0000    0.0000    0.0000    0.0000    0.0000   -0.0000    1.0003    0.0000   -0.0000
    97 S4     3px        0.0000    0.0000   -0.0000    0.0000    0.0000   -0.0000    0.0000    0.0003   -0.0000   -0.0000
    98 S4     *px       -0.0000   -0.0000    0.0000   -0.0000   -0.0000   -0.0000   -0.0000   -0.0006   -0.0000    0.0000
    99 S4     *px       -0.0000    0.0000    0.0000    0.0000   -0.0000   -0.0000   -0.0000    0.0001    0.0000    0.0000
   100 S4     2py        0.0000   -0.0000   -0.0002   -0.0000    0.0000   -0.0000    0.9992    0.0000   -0.0000   -0.0020
   101 S4     3py        0.0000   -0.0000   -0.0004   -0.0000    0.0000    0.0000   -0.0022   -0.0000   -0.0000    0.0561
   102 S4     *py       -0.0000    0.0000    0.0002    0.0000   -0.0000   -0.0000    0.0013    0.0000    0.0000    0.0001
   103 S4     *py        0.0000   -0.0000    0.0001    0.0000    0.0000   -0.0000   -0.0000   -0.0000    0.0000   -0.0089
   104 S4     2pz        0.0001   -0.0006    0.0000   -0.0003    0.0033    0.9977    0.0000   -0.0000   -0.0145   -0.0000
   105 S4     3pz        0.0002   -0.0026    0.0000   -0.0009   -0.0003   -0.0045   -0.0000    0.0000    0.0777   -0.0000
   106 S4     *pz       -0.0001    0.0005   -0.0000    0.0004    0.0010    0.0036    0.0000   -0.0000    0.0061    0.0000
   107 S4     *pz       -0.0001    0.0006    0.0000   -0.0001    0.0010   -0.0025   -0.0000    0.0000   -0.0292   -0.0000
   108 S4     *d2-      -0.0000    0.0000    0.0000   -0.0000    0.0000    0.0000    0.0000   -0.0000   -0.0000   -0.0000
   109 S4     *d2-      -0.0000   -0.0000   -0.0000    0.0000   -0.0000   -0.0000    0.0000   -0.0000    0.0000    0.0000
   110 S4     *d1-       0.0000   -0.0000   -0.0003   -0.0000    0.0000   -0.0000   -0.0014   -0.0000   -0.0000    0.0062
   111 S4     *d1-      -0.0000    0.0000   -0.0000   -0.0000   -0.0000    0.0000    0.0008    0.0000   -0.0000    0.0064
   112 S4     *d0        0.0000   -0.0006    0.0000   -0.0002   -0.0001   -0.0020   -0.0000    0.0000    0.0101   -0.0000
   113 S4     *d0        0.0000   -0.0002    0.0000   -0.0000    0.0005    0.0013    0.0000    0.0000    0.0167   -0.0000
   114 S4     *d1+       0.0000    0.0000   -0.0000    0.0000    0.0000    0.0000    0.0000   -0.0006   -0.0000   -0.0000
   115 S4     *d1+      -0.0000   -0.0000   -0.0000   -0.0000   -0.0000    0.0000   -0.0000    0.0006   -0.0000   -0.0000
   116 S4     *d2+       0.0000    0.0001   -0.0000    0.0001    0.0001    0.0001   -0.0000   -0.0000   -0.0002    0.0000
   117 S4     *d2+      -0.0000   -0.0000    0.0000   -0.0000   -0.0002   -0.0000   -0.0000    0.0000   -0.0005    0.0000
   118 S4     *f3-       0.0000   -0.0000   -0.0000   -0.0000    0.0000    0.0000   -0.0001   -0.0000   -0.0000   -0.0002
   119 S4     *f2-      -0.0000    0.0000   -0.0000    0.0000    0.0000   -0.0000    0.0000    0.0000   -0.0000   -0.0000
   120 S4     *f1-       0.0000   -0.0000   -0.0001   -0.0000   -0.0000    0.0000   -0.0001    0.0000   -0.0000    0.0027
   121 S4     *f0        0.0000    0.0000   -0.0000    0.0000    0.0001    0.0001    0.0000    0.0000    0.0053   -0.0000
   122 S4     *f1+       0.0000    0.0000    0.0000    0.0000    0.0000    0.0000    0.0000    0.0000   -0.0000   -0.0000
   123 S4     *f2+      -0.0000    0.0000   -0.0000    0.0001    0.0000    0.0000   -0.0000   -0.0000   -0.0006    0.0000
   124 S4     *f3+       0.0000    0.0000   -0.0000   -0.0000   -0.0000   -0.0000    0.0000   -0.0001    0.0000   -0.0000
   125 H5     1s        -0.0000    0.0001   -0.0005    0.0004   -0.0000    0.0003    0.0001   -0.0000    0.1163   -0.2326
   126 H5     *s         0.0000   -0.0001    0.0008   -0.0007   -0.0003    0.0000   -0.0004   -0.0000   -0.0315    0.0578
   127 H5     *s         0.0000   -0.0001    0.0008   -0.0005   -0.0000   -0.0002    0.0003    0.0000   -0.0457    0.0822
   128 H5     *px        0.0000    0.0000    0.0000    0.0000    0.0000   -0.0000   -0.0000   -0.0000   -0.0000   -0.0000
   129 H5     *px       -0.0000   -0.0000   -0.0000   -0.0000   -0.0000    0.0000   -0.0000    0.0000    0.0000    0.0000
   130 H5     *py       -0.0000    0.0001   -0.0000    0.0000    0.0000   -0.0000   -0.0000    0.0000    0.0003    0.0011
   131 H5     *py       -0.0000    0.0001   -0.0000    0.0001   -0.0000    0.0001    0.0001   -0.0000    0.0010   -0.0002
   132 H5     *pz       -0.0000   -0.0000   -0.0002    0.0002    0.0000    0.0000   -0.0000    0.0000   -0.0029    0.0051
   133 H5     *pz       -0.0000    0.0000   -0.0002    0.0002    0.0001   -0.0001    0.0001    0.0000   -0.0005    0.0013
   134 H5     *d2-       0.0000   -0.0000    0.0000    0.0000    0.0000   -0.0000    0.0000   -0.0000    0.0000   -0.0000
   135 H5     *d1-       0.0000   -0.0001    0.0000   -0.0001   -0.0000   -0.0000   -0.0000    0.0000   -0.0003   -0.0000
   136 H5     *d0        0.0000   -0.0000    0.0002   -0.0002   -0.0000    0.0000   -0.0000   -0.0000    0.0003   -0.0007
   137 H5     *d1+       0.0000   -0.0000    0.0000    0.0000    0.0000   -0.0000    0.0000    0.0000   -0.0000   -0.0000
   138 H5     *d2+      -0.0000    0.0000    0.0000    0.0000    0.0000   -0.0000   -0.0000    0.0000   -0.0002    0.0001
   139 H6     1s         0.0000   -0.0000   -0.0006    0.0005    0.0000    0.0004   -0.0002    0.0000    0.1236   -0.2567
   140 H6     *s        -0.0000    0.0000    0.0013   -0.0009   -0.0000   -0.0017    0.0003    0.0001   -0.0336    0.0618
   141 H6     *s         0.0000    0.0003    0.0008   -0.0008   -0.0002   -0.0004    0.0005   -0.0002   -0.0454    0.0903
   142 H6     *px        0.0000    0.0000   -0.0002    0.0002   -0.0000    0.0000   -0.0000    0.0000   -0.0021    0.0049
   143 H6     *px       -0.0000   -0.0001   -0.0003    0.0002    0.0001    0.0004   -0.0001   -0.0000    0.0003    0.0021
   144 H6     *py       -0.0000    0.0000    0.0001   -0.0001    0.0000    0.0000   -0.0000    0.0000    0.0019   -0.0033
   145 H6     *py        0.0000    0.0000    0.0003   -0.0002   -0.0000   -0.0006    0.0003   -0.0001    0.0016   -0.0015
   146 H6     *pz       -0.0000   -0.0000    0.0001   -0.0001   -0.0000   -0.0000    0.0000   -0.0000    0.0002   -0.0013
   147 H6     *pz       -0.0000   -0.0001    0.0001   -0.0000    0.0000    0.0000   -0.0003    0.0001   -0.0011    0.0000
   148 H6     *d2-      -0.0000   -0.0000   -0.0002    0.0001    0.0000    0.0001   -0.0000    0.0000   -0.0005    0.0009
   149 H6     *d1-      -0.0000   -0.0000    0.0001   -0.0000    0.0000    0.0000   -0.0000    0.0000   -0.0003    0.0000
   150 H6     *d0       -0.0000   -0.0000   -0.0001    0.0001    0.0000    0.0000   -0.0000    0.0000   -0.0004    0.0004
   151 H6     *d1+       0.0000    0.0000   -0.0001    0.0001   -0.0000   -0.0000    0.0000   -0.0000    0.0002    0.0002
   152 H6     *d2+      -0.0000   -0.0000    0.0000   -0.0001   -0.0000    0.0000   -0.0000    0.0000   -0.0003   -0.0001
   153 H7     1s         0.0000   -0.0000   -0.0006    0.0005    0.0000    0.0004   -0.0002   -0.0000    0.1236   -0.2567
   154 H7     *s        -0.0000    0.0000    0.0013   -0.0009   -0.0000   -0.0017    0.0003   -0.0001   -0.0336    0.0618
   155 H7     *s         0.0000    0.0003    0.0008   -0.0008   -0.0002   -0.0004    0.0005    0.0002   -0.0454    0.0903
   156 H7     *px       -0.0000   -0.0000    0.0002   -0.0002    0.0000   -0.0000    0.0000    0.0000    0.0021   -0.0049
   157 H7     *px        0.0000    0.0001    0.0003   -0.0002   -0.0001   -0.0004    0.0001   -0.0000   -0.0003   -0.0021
   158 H7     *py       -0.0000    0.0000    0.0001   -0.0001    0.0000    0.0000   -0.0000   -0.0000    0.0019   -0.0033
   159 H7     *py        0.0000    0.0000    0.0003   -0.0002   -0.0000   -0.0006    0.0003    0.0001    0.0016   -0.0015
   160 H7     *pz       -0.0000   -0.0000    0.0001   -0.0001   -0.0000   -0.0000    0.0000    0.0000    0.0002   -0.0013
   161 H7     *pz       -0.0000   -0.0001    0.0001   -0.0000    0.0000    0.0000   -0.0003   -0.0001   -0.0011    0.0000
   162 H7     *d2-       0.0000    0.0000    0.0002   -0.0001   -0.0000   -0.0001    0.0000    0.0000    0.0005   -0.0009
   163 H7     *d1-      -0.0000   -0.0000    0.0001   -0.0000    0.0000    0.0000   -0.0000   -0.0000   -0.0003    0.0000
   164 H7     *d0       -0.0000   -0.0000   -0.0001    0.0001    0.0000    0.0000   -0.0000   -0.0000   -0.0004    0.0004
   165 H7     *d1+      -0.0000   -0.0000    0.0001   -0.0001    0.0000    0.0000   -0.0000   -0.0000   -0.0002   -0.0002
   166 H7     *d2+      -0.0000   -0.0000    0.0000   -0.0001   -0.0000    0.0000   -0.0000   -0.0000   -0.0003   -0.0001
   167 H8     1s        -0.0000    0.0001    0.0005    0.0004   -0.0000    0.0003   -0.0001   -0.0000    0.1163    0.2326
   168 H8     *s         0.0000   -0.0001   -0.0008   -0.0007   -0.0003    0.0000    0.0004    0.0000   -0.0315   -0.0578
   169 H8     *s         0.0000   -0.0001   -0.0008   -0.0005   -0.0000   -0.0002   -0.0003    0.0000   -0.0457   -0.0822
   170 H8     *px       -0.0000    0.0000    0.0000   -0.0000    0.0000   -0.0000   -0.0000   -0.0000    0.0000    0.0000
   171 H8     *px        0.0000    0.0000   -0.0000    0.0000   -0.0000    0.0000    0.0000    0.0000   -0.0000   -0.0000
   172 H8     *py        0.0000   -0.0001   -0.0000   -0.0000   -0.0000    0.0000   -0.0000   -0.0000   -0.0003    0.0011
   173 H8     *py        0.0000   -0.0001   -0.0000   -0.0001    0.0000   -0.0001    0.0001    0.0000   -0.0010   -0.0002
   174 H8     *pz       -0.0000   -0.0000    0.0002    0.0002    0.0000    0.0000    0.0000   -0.0000   -0.0029   -0.0051
   175 H8     *pz       -0.0000    0.0000    0.0002    0.0002    0.0001   -0.0001   -0.0001   -0.0000   -0.0005   -0.0013
   176 H8     *d2-      -0.0000    0.0000   -0.0000   -0.0000   -0.0000    0.0000    0.0000    0.0000   -0.0000   -0.0000
   177 H8     *d1-      -0.0000    0.0001    0.0000    0.0001    0.0000    0.0000   -0.0000   -0.0000    0.0003   -0.0000
   178 H8     *d0        0.0000   -0.0000   -0.0002   -0.0002   -0.0000    0.0000    0.0000    0.0000    0.0003    0.0007
   179 H8     *d1+       0.0000   -0.0000    0.0000   -0.0000    0.0000   -0.0000   -0.0000    0.0000    0.0000    0.0000
   180 H8     *d2+      -0.0000    0.0000   -0.0000    0.0000    0.0000   -0.0000    0.0000    0.0000   -0.0002   -0.0001
   181 H9     1s         0.0000   -0.0000    0.0006    0.0005    0.0000    0.0004    0.0002   -0.0000    0.1236    0.2567
   182 H9     *s        -0.0000    0.0000   -0.0013   -0.0009   -0.0000   -0.0017   -0.0003   -0.0001   -0.0336   -0.0618
   183 H9     *s         0.0000    0.0003   -0.0008   -0.0008   -0.0002   -0.0004   -0.0005    0.0002   -0.0454   -0.0903
   184 H9     *px       -0.0000   -0.0000   -0.0002   -0.0002    0.0000   -0.0000   -0.0000    0.0000    0.0021    0.0049
   185 H9     *px        0.0000    0.0001   -0.0003   -0.0002   -0.0001   -0.0004   -0.0001   -0.0000   -0.0003    0.0021
   186 H9     *py        0.0000   -0.0000    0.0001    0.0001   -0.0000   -0.0000   -0.0000    0.0000   -0.0019   -0.0033
   187 H9     *py       -0.0000   -0.0000    0.0003    0.0002    0.0000    0.0006    0.0003   -0.0001   -0.0016   -0.0015
   188 H9     *pz       -0.0000   -0.0000   -0.0001   -0.0001   -0.0000   -0.0000   -0.0000    0.0000    0.0002    0.0013
   189 H9     *pz       -0.0000   -0.0001   -0.0001   -0.0000    0.0000    0.0000    0.0003   -0.0001   -0.0011   -0.0000
   190 H9     *d2-      -0.0000   -0.0000    0.0002    0.0001    0.0000    0.0001    0.0000   -0.0000   -0.0005   -0.0009
   191 H9     *d1-       0.0000    0.0000    0.0001    0.0000   -0.0000   -0.0000   -0.0000    0.0000    0.0003    0.0000
   192 H9     *d0       -0.0000   -0.0000    0.0001    0.0001    0.0000    0.0000    0.0000   -0.0000   -0.0004   -0.0004
   193 H9     *d1+      -0.0000   -0.0000   -0.0001   -0.0001    0.0000    0.0000    0.0000   -0.0000   -0.0002    0.0002
   194 H9     *d2+      -0.0000   -0.0000   -0.0000   -0.0001   -0.0000    0.0000    0.0000   -0.0000   -0.0003    0.0001
   195 H10    1s         0.0000   -0.0000    0.0006    0.0005    0.0000    0.0004    0.0002    0.0000    0.1236    0.2567
   196 H10    *s        -0.0000    0.0000   -0.0013   -0.0009   -0.0000   -0.0017   -0.0003    0.0001   -0.0336   -0.0618
   197 H10    *s         0.0000    0.0003   -0.0008   -0.0008   -0.0002   -0.0004   -0.0005   -0.0002   -0.0454   -0.0903
   198 H10    *px        0.0000    0.0000    0.0002    0.0002   -0.0000    0.0000    0.0000    0.0000   -0.0021   -0.0049
   199 H10    *px       -0.0000   -0.0001    0.0003    0.0002    0.0001    0.0004    0.0001   -0.0000    0.0003   -0.0021
   200 H10    *py        0.0000   -0.0000    0.0001    0.0001   -0.0000   -0.0000   -0.0000   -0.0000   -0.0019   -0.0033
   201 H10    *py       -0.0000   -0.0000    0.0003    0.0002    0.0000    0.0006    0.0003    0.0001   -0.0016   -0.0015
   202 H10    *pz       -0.0000   -0.0000   -0.0001   -0.0001   -0.0000   -0.0000   -0.0000   -0.0000    0.0002    0.0013
   203 H10    *pz       -0.0000   -0.0001   -0.0001   -0.0000    0.0000    0.0000    0.0003    0.0001   -0.0011   -0.0000
   204 H10    *d2-       0.0000    0.0000   -0.0002   -0.0001   -0.0000   -0.0001   -0.0000   -0.0000    0.0005    0.0009
   205 H10    *d1-       0.0000    0.0000    0.0001    0.0000   -0.0000   -0.0000   -0.0000   -0.0000    0.0003    0.0000
   206 H10    *d0       -0.0000   -0.0000    0.0001    0.0001    0.0000    0.0000    0.0000    0.0000   -0.0004   -0.0004
   207 H10    *d1+       0.0000    0.0000    0.0001    0.0001   -0.0000   -0.0000   -0.0000   -0.0000    0.0002   -0.0002
   208 H10    *d2+      -0.0000   -0.0000   -0.0000   -0.0001   -0.0000    0.0000    0.0000    0.0000   -0.0003    0.0001
 
 
      Orbital                11        12        13        14        15        16        17        18        19        20
      Energy            -0.9398   -0.7057   -0.6025   -0.5978   -0.5927   -0.5582   -0.5100   -0.4847   -0.0000   -0.0000
      Occ. No.           2.0000    2.0000    2.0000    2.0000    2.0000    2.0000    2.0000    1.7660    1.7812    1.4130
 
     1 C1     1s        -0.0063   -0.0026   -0.0000    0.0000    0.0012   -0.0000   -0.0009   -0.0004   -0.0000    0.0011
     2 C1     2s         0.3497    0.1620   -0.0295    0.0000   -0.0348   -0.0000   -0.0587   -0.0760   -0.0000    0.1179
     3 C1     *s        -0.0094   -0.0031    0.0004    0.0000   -0.0002    0.0000    0.0017    0.0025    0.0000   -0.0025
     4 C1     *s        -0.0425    0.0384    0.0108    0.0000   -0.0193   -0.0000    0.0181   -0.0041   -0.0000    0.0247
     5 C1     2px       -0.0000    0.0000   -0.0000    0.4551    0.0000   -0.4769   -0.0000    0.0000   -0.1011   -0.0000
     6 C1     *px       -0.0000    0.0000   -0.0000   -0.0319   -0.0000    0.0263    0.0000   -0.0000    0.0017    0.0000
     7 C1     *px       -0.0000    0.0000   -0.0000   -0.0660   -0.0000    0.0553    0.0000   -0.0000   -0.0106    0.0000
     8 C1     2py       -0.0181   -0.3382    0.2091    0.0000    0.0984    0.0000   -0.4638   -0.1217   -0.0000    0.1474
     9 C1     *py        0.0007    0.0215   -0.0121   -0.0000   -0.0022    0.0000    0.0248    0.0086   -0.0000   -0.0082
    10 C1     *py        0.0028    0.0814   -0.0238   -0.0000   -0.0228    0.0000    0.0569    0.0080    0.0000   -0.0135
    11 C1     2pz        0.0640    0.1354    0.4021    0.0000   -0.4387   -0.0000   -0.1461    0.1429    0.0000   -0.1312
    12 C1     *pz       -0.0050   -0.0091   -0.0298    0.0000    0.0262    0.0000    0.0083   -0.0011   -0.0000    0.0064
    13 C1     *pz       -0.0100   -0.0289   -0.0603   -0.0000    0.0709    0.0000    0.0067    0.0013   -0.0000    0.0248
    14 C1     *d2-       0.0000   -0.0000    0.0000   -0.0087   -0.0000    0.0117   -0.0000   -0.0000    0.0056    0.0000
    15 C1     *d2-       0.0000   -0.0000    0.0000   -0.0045   -0.0000    0.0148   -0.0000   -0.0000    0.0144   -0.0000
    16 C1     *d1-       0.0015    0.0091    0.0016    0.0000   -0.0087   -0.0000    0.0086    0.0022    0.0000   -0.0041
    17 C1     *d1-       0.0034    0.0107    0.0020    0.0000   -0.0124   -0.0000    0.0127    0.0018    0.0000   -0.0042
    18 C1     *d0        0.0002    0.0019    0.0111   -0.0000   -0.0074    0.0000   -0.0110    0.0067    0.0000   -0.0026
    19 C1     *d0       -0.0005    0.0055    0.0100   -0.0000   -0.0053    0.0000   -0.0158    0.0186    0.0000   -0.0051
    20 C1     *d1+      -0.0000   -0.0000    0.0000   -0.0058   -0.0000    0.0060   -0.0000   -0.0000   -0.0006   -0.0000
    21 C1     *d1+       0.0000   -0.0000    0.0000   -0.0088    0.0000    0.0080   -0.0000    0.0000   -0.0020    0.0000
    22 C1     *d2+      -0.0001    0.0089   -0.0030    0.0000   -0.0035   -0.0000    0.0074    0.0041    0.0000   -0.0024
    23 C1     *d2+      -0.0007    0.0119   -0.0068    0.0000   -0.0043   -0.0000    0.0065    0.0063    0.0000   -0.0025
    24 C1     *f3-      -0.0033    0.0001   -0.0004   -0.0000    0.0000    0.0000    0.0000    0.0024    0.0000   -0.0012
    25 C1     *f2-      -0.0000    0.0000   -0.0000   -0.0010    0.0000    0.0003    0.0000    0.0000   -0.0015   -0.0000
    26 C1     *f1-       0.0005    0.0015   -0.0013    0.0000    0.0017   -0.0000   -0.0019    0.0020   -0.0000    0.0002
    27 C1     *f0        0.0036    0.0006    0.0001    0.0000   -0.0002   -0.0000   -0.0013   -0.0016   -0.0000    0.0021
    28 C1     *f1+       0.0000   -0.0000    0.0000    0.0003    0.0000   -0.0001   -0.0000   -0.0000    0.0008   -0.0000
    29 C1     *f2+       0.0009   -0.0018   -0.0004   -0.0000    0.0024    0.0000   -0.0028   -0.0016   -0.0000    0.0015
    30 C1     *f3+      -0.0000   -0.0000    0.0000   -0.0015    0.0000    0.0006   -0.0000    0.0000   -0.0005   -0.0000
    31 C2     1s         0.0017    0.0039    0.0006    0.0000   -0.0000    0.0000    0.0000   -0.0011   -0.0000   -0.0000
    32 C2     2s        -0.0591   -0.5335   -0.0759   -0.0000   -0.0000    0.0000    0.0000    0.1779   -0.0000   -0.0000
    33 C2     *s         0.0038    0.0139    0.0022   -0.0000    0.0000   -0.0000   -0.0000   -0.0018    0.0000   -0.0000
    34 C2     *s         0.0153   -0.0197   -0.0281    0.0000   -0.0000    0.0000    0.0000   -0.0317   -0.0000    0.0000
    35 C2     2px        0.0000   -0.0000   -0.0000    0.1968    0.0000    0.0000   -0.0000   -0.0000    0.2800    0.0000
    36 C2     *px        0.0000   -0.0000   -0.0000    0.0032    0.0000   -0.0000    0.0000   -0.0000   -0.0003    0.0000
    37 C2     *px       -0.0000    0.0000    0.0000   -0.0528   -0.0000    0.0000   -0.0000   -0.0000   -0.0187    0.0000
    38 C2     2py        0.0000    0.0000    0.0000    0.0000   -0.4254   -0.0000    0.4192    0.0000   -0.0000   -0.1717
    39 C2     *py       -0.0000    0.0000    0.0000   -0.0000    0.0062    0.0000   -0.0059   -0.0000   -0.0000    0.0014
    40 C2     *py       -0.0000    0.0000    0.0000    0.0000    0.0629   -0.0000   -0.0473   -0.0000   -0.0000   -0.0098
    41 C2     2pz        0.2308   -0.2091    0.0461    0.0000   -0.0000    0.0000    0.0000   -0.5753   -0.0000    0.0000
    42 C2     *pz       -0.0157    0.0066   -0.0009    0.0000    0.0000   -0.0000   -0.0000    0.0270    0.0000   -0.0000
    43 C2     *pz       -0.0841    0.0110   -0.0330    0.0000    0.0000   -0.0000   -0.0000    0.1322    0.0000    0.0000
    44 C2     *d2-      -0.0000   -0.0000    0.0000   -0.0000   -0.0000    0.0090    0.0000    0.0000    0.0000    0.0000
    45 C2     *d2-       0.0000    0.0000   -0.0000    0.0000   -0.0000    0.0184    0.0000    0.0000    0.0000   -0.0000
    46 C2     *d1-      -0.0000    0.0000    0.0000    0.0000   -0.0029   -0.0000    0.0113   -0.0000   -0.0000   -0.0189
    47 C2     *d1-       0.0000    0.0000    0.0000   -0.0000    0.0014   -0.0000    0.0182    0.0000    0.0000   -0.0380
    48 C2     *d0       -0.0089    0.0017    0.0080   -0.0000    0.0000   -0.0000   -0.0000    0.0169    0.0000   -0.0000
    49 C2     *d0       -0.0127    0.0066    0.0153    0.0000   -0.0000    0.0000    0.0000    0.0174    0.0000    0.0000
    50 C2     *d1+      -0.0000    0.0000    0.0000    0.0028    0.0000   -0.0000   -0.0000    0.0000   -0.0128   -0.0000
    51 C2     *d1+      -0.0000   -0.0000    0.0000    0.0040   -0.0000    0.0000    0.0000    0.0000   -0.0290    0.0000
    52 C2     *d2+      -0.0029    0.0077    0.0048    0.0000    0.0000   -0.0000    0.0000    0.0057    0.0000   -0.0000
    53 C2     *d2+      -0.0027    0.0143    0.0111   -0.0000    0.0000    0.0000   -0.0000    0.0095    0.0000   -0.0000
    54 C2     *f3-       0.0000   -0.0000   -0.0000   -0.0000    0.0047    0.0000   -0.0031   -0.0000    0.0000    0.0026
    55 C2     *f2-       0.0000   -0.0000   -0.0000   -0.0000   -0.0000    0.0023    0.0000    0.0000   -0.0000   -0.0000
    56 C2     *f1-       0.0000    0.0000    0.0000    0.0000   -0.0013   -0.0000    0.0068    0.0000   -0.0000    0.0040
    57 C2     *f0        0.0040    0.0034    0.0015   -0.0000    0.0000   -0.0000   -0.0000   -0.0057   -0.0000   -0.0000
    58 C2     *f1+       0.0000   -0.0000   -0.0000    0.0017    0.0000    0.0000    0.0000   -0.0000    0.0068   -0.0000
    59 C2     *f2+      -0.0005    0.0065    0.0002   -0.0000    0.0000    0.0000   -0.0000    0.0029   -0.0000   -0.0000
    60 C2     *f3+      -0.0000    0.0000    0.0000   -0.0038   -0.0000   -0.0000    0.0000    0.0000   -0.0009   -0.0000
    61 C3     1s        -0.0063   -0.0026   -0.0000   -0.0000   -0.0012    0.0000    0.0009   -0.0004    0.0000   -0.0011
    62 C3     2s         0.3497    0.1620   -0.0295   -0.0000    0.0348    0.0000    0.0587   -0.0760   -0.0000   -0.1179
    63 C3     *s        -0.0094   -0.0031    0.0004    0.0000    0.0002   -0.0000   -0.0017    0.0025    0.0000    0.0025
    64 C3     *s        -0.0425    0.0384    0.0108   -0.0000    0.0193    0.0000   -0.0181   -0.0041    0.0000   -0.0247
    65 C3     2px       -0.0000    0.0000   -0.0000    0.4551    0.0000    0.4769    0.0000    0.0000   -0.1011   -0.0000
    66 C3     *px       -0.0000   -0.0000    0.0000   -0.0319   -0.0000   -0.0263    0.0000   -0.0000    0.0017   -0.0000
    67 C3     *px        0.0000   -0.0000    0.0000   -0.0660   -0.0000   -0.0553    0.0000   -0.0000   -0.0106   -0.0000
    68 C3     2py        0.0181    0.3382   -0.2091   -0.0000    0.0984    0.0000   -0.4638    0.1217    0.0000    0.1474
    69 C3     *py       -0.0007   -0.0215    0.0121    0.0000   -0.0022    0.0000    0.0248   -0.0086    0.0000   -0.0082
    70 C3     *py       -0.0028   -0.0814    0.0238    0.0000   -0.0228   -0.0000    0.0569   -0.0080   -0.0000   -0.0135
    71 C3     2pz        0.0640    0.1354    0.4021    0.0000    0.4387    0.0000    0.1461    0.1429    0.0000    0.1312
    72 C3     *pz       -0.0050   -0.0091   -0.0298   -0.0000   -0.0262   -0.0000   -0.0083   -0.0011   -0.0000   -0.0064
    73 C3     *pz       -0.0100   -0.0289   -0.0603    0.0000   -0.0709   -0.0000   -0.0067    0.0013   -0.0000   -0.0248
    74 C3     *d2-      -0.0000    0.0000    0.0000    0.0087   -0.0000    0.0117    0.0000    0.0000   -0.0056   -0.0000
    75 C3     *d2-      -0.0000   -0.0000    0.0000    0.0045   -0.0000    0.0148    0.0000    0.0000   -0.0144   -0.0000
    76 C3     *d1-      -0.0015   -0.0091   -0.0016    0.0000   -0.0087   -0.0000    0.0086   -0.0022   -0.0000   -0.0041
    77 C3     *d1-      -0.0034   -0.0107   -0.0020   -0.0000   -0.0124    0.0000    0.0127   -0.0018   -0.0000   -0.0042
    78 C3     *d0        0.0002    0.0019    0.0111   -0.0000    0.0074   -0.0000    0.0110    0.0067    0.0000    0.0026
    79 C3     *d0       -0.0005    0.0055    0.0100   -0.0000    0.0053    0.0000    0.0158    0.0186    0.0000    0.0051
    80 C3     *d1+      -0.0000    0.0000    0.0000   -0.0058    0.0000   -0.0060   -0.0000   -0.0000   -0.0006    0.0000
    81 C3     *d1+       0.0000   -0.0000   -0.0000   -0.0088    0.0000   -0.0080    0.0000    0.0000   -0.0020    0.0000
    82 C3     *d2+      -0.0001    0.0089   -0.0030   -0.0000    0.0035    0.0000   -0.0074    0.0041    0.0000    0.0024
    83 C3     *d2+      -0.0007    0.0119   -0.0068    0.0000    0.0043    0.0000   -0.0065    0.0063    0.0000    0.0025
    84 C3     *f3-       0.0033   -0.0001    0.0004   -0.0000    0.0000    0.0000    0.0000   -0.0024   -0.0000   -0.0012
    85 C3     *f2-       0.0000    0.0000   -0.0000    0.0010    0.0000    0.0003   -0.0000   -0.0000    0.0015    0.0000
    86 C3     *f1-      -0.0005   -0.0015    0.0013    0.0000    0.0017   -0.0000   -0.0019   -0.0020   -0.0000    0.0002
    87 C3     *f0        0.0036    0.0006    0.0001   -0.0000    0.0002    0.0000    0.0013   -0.0016   -0.0000   -0.0021
    88 C3     *f1+       0.0000    0.0000   -0.0000    0.0003    0.0000    0.0001   -0.0000   -0.0000    0.0008    0.0000
    89 C3     *f2+       0.0009   -0.0018   -0.0004   -0.0000   -0.0024    0.0000    0.0028   -0.0016   -0.0000   -0.0015
    90 C3     *f3+      -0.0000    0.0000    0.0000   -0.0015   -0.0000   -0.0006   -0.0000    0.0000   -0.0005    0.0000
    91 S4     1s         0.0008   -0.0004   -0.0005   -0.0000   -0.0000   -0.0000    0.0000    0.0015   -0.0000   -0.0000
    92 S4     2s         0.0087   -0.0006   -0.0015   -0.0000   -0.0000    0.0000    0.0000    0.0039   -0.0000   -0.0000
    93 S4     3s        -0.7120    0.3862    0.1996    0.0000    0.0000   -0.0000    0.0000   -0.1910    0.0000   -0.0000
    94 S4     *s         0.0022    0.0010    0.0018    0.0000   -0.0000    0.0000    0.0000   -0.0066   -0.0000    0.0000
    95 S4     *s         0.0023    0.0302    0.0269   -0.0000    0.0000   -0.0000   -0.0000   -0.1316    0.0000   -0.0000
    96 S4     2px       -0.0000    0.0000    0.0000   -0.0016   -0.0000   -0.0000    0.0000    0.0000   -0.0088   -0.0000
    97 S4     3px        0.0000   -0.0000   -0.0000    0.0702    0.0000    0.0000    0.0000   -0.0000    0.8666    0.0000
    98 S4     *px        0.0000   -0.0000   -0.0000   -0.0004   -0.0000    0.0000   -0.0000   -0.0000    0.0050    0.0000
    99 S4     *px        0.0000   -0.0000   -0.0000   -0.0116   -0.0000   -0.0000    0.0000    0.0000    0.0130   -0.0000
   100 S4     2py        0.0000   -0.0000   -0.0000   -0.0000    0.0036    0.0000   -0.0018    0.0000    0.0000   -0.0067
   101 S4     3py        0.0000    0.0000    0.0000   -0.0000   -0.1964    0.0000    0.1610    0.0000   -0.0000    0.9049
   102 S4     *py       -0.0000    0.0000    0.0000    0.0000    0.0010   -0.0000   -0.0005   -0.0000   -0.0000    0.0044
   103 S4     *py        0.0000   -0.0000   -0.0000   -0.0000    0.0329    0.0000   -0.0169   -0.0000    0.0000    0.0825
   104 S4     2pz        0.0101    0.0054    0.0031   -0.0000    0.0000   -0.0000   -0.0000   -0.0260    0.0000   -0.0000
   105 S4     3pz       -0.0284   -0.1077   -0.0603   -0.0000    0.0000   -0.0000   -0.0000    0.7187    0.0000   -0.0000
   106 S4     *pz       -0.0039   -0.0025   -0.0007    0.0000   -0.0000    0.0000    0.0000    0.0148   -0.0000    0.0000
   107 S4     *pz        0.0166    0.0248    0.0185   -0.0000    0.0000   -0.0000   -0.0000   -0.0886    0.0000   -0.0000
   108 S4     *d2-      -0.0000    0.0000    0.0000    0.0000   -0.0000    0.0028    0.0000    0.0000   -0.0000    0.0000
   109 S4     *d2-      -0.0000   -0.0000    0.0000    0.0000   -0.0000    0.0020    0.0000    0.0000    0.0000    0.0000
   110 S4     *d1-       0.0000   -0.0000   -0.0000   -0.0000   -0.0181    0.0000    0.0145    0.0000    0.0000    0.0093
   111 S4     *d1-      -0.0000    0.0000    0.0000    0.0000   -0.0175   -0.0000    0.0131    0.0000   -0.0000    0.0017
   112 S4     *d0       -0.0041   -0.0131   -0.0057   -0.0000    0.0000   -0.0000   -0.0000    0.0406    0.0000   -0.0000
   113 S4     *d0       -0.0130   -0.0099   -0.0043   -0.0000    0.0000   -0.0000   -0.0000    0.0469    0.0000   -0.0000
   114 S4     *d1+      -0.0000    0.0000   -0.0000    0.0089   -0.0000   -0.0000    0.0000    0.0000    0.0231    0.0000
   115 S4     *d1+       0.0000   -0.0000   -0.0000    0.0072    0.0000    0.0000   -0.0000    0.0000    0.0206    0.0000
   116 S4     *d2+      -0.0004   -0.0003    0.0020    0.0000    0.0000   -0.0000   -0.0000    0.0027    0.0000   -0.0000
   117 S4     *d2+      -0.0000   -0.0004    0.0014    0.0000   -0.0000    0.0000    0.0000    0.0022    0.0000   -0.0000
   118 S4     *f3-       0.0000   -0.0000   -0.0000   -0.0000    0.0007    0.0000   -0.0001   -0.0000    0.0000    0.0010
   119 S4     *f2-      -0.0000    0.0000    0.0000   -0.0000    0.0000    0.0013   -0.0000   -0.0000    0.0000   -0.0000
   120 S4     *f1-       0.0000    0.0000    0.0000   -0.0000   -0.0079    0.0000    0.0056    0.0000    0.0000    0.0054
   121 S4     *f0       -0.0058   -0.0018   -0.0003   -0.0000    0.0000   -0.0000   -0.0000    0.0157    0.0000   -0.0000
   122 S4     *f1+       0.0000   -0.0000   -0.0000    0.0034    0.0000    0.0000    0.0000   -0.0000    0.0107    0.0000
   123 S4     *f2+      -0.0001   -0.0001    0.0012    0.0000   -0.0000   -0.0000    0.0000   -0.0013    0.0000   -0.0000
   124 S4     *f3+      -0.0000    0.0000    0.0000   -0.0009   -0.0000   -0.0000    0.0000    0.0000   -0.0030    0.0000
   125 H5     1s         0.2127    0.1763    0.4627    0.0000   -0.4554   -0.0000   -0.2793    0.1423    0.0000   -0.0799
   126 H5     *s        -0.0454   -0.0375   -0.0538   -0.0000    0.0621    0.0000    0.0355   -0.0278    0.0000   -0.0012
   127 H5     *s        -0.0710   -0.0501   -0.1085   -0.0000    0.1110   -0.0000    0.0557   -0.0163   -0.0000   -0.0124
   128 H5     *px       -0.0000    0.0000   -0.0000    0.0033    0.0000   -0.0034    0.0000    0.0000   -0.0011    0.0000
   129 H5     *px       -0.0000   -0.0000    0.0000    0.0082   -0.0000   -0.0074   -0.0000    0.0000   -0.0016   -0.0000
   130 H5     *py       -0.0007   -0.0032   -0.0000   -0.0000    0.0026    0.0000   -0.0018   -0.0021   -0.0000    0.0016
   131 H5     *py        0.0014   -0.0043    0.0038    0.0000    0.0061   -0.0000   -0.0066   -0.0018   -0.0000    0.0040
   132 H5     *pz       -0.0047   -0.0031   -0.0095   -0.0000    0.0096   -0.0000    0.0057   -0.0016   -0.0000    0.0010
   133 H5     *pz       -0.0036    0.0001   -0.0133    0.0000    0.0092   -0.0000    0.0066    0.0042   -0.0000    0.0025
   134 H5     *d2-       0.0000    0.0000   -0.0000   -0.0003    0.0000    0.0002    0.0000   -0.0000    0.0000    0.0000
   135 H5     *d1-      -0.0003    0.0016   -0.0001   -0.0000   -0.0013    0.0000    0.0011    0.0016    0.0000   -0.0009
   136 H5     *d0        0.0010    0.0002    0.0028   -0.0000   -0.0023    0.0000   -0.0019   -0.0002    0.0000   -0.0004
   137 H5     *d1+       0.0000    0.0000   -0.0000   -0.0014    0.0000    0.0013    0.0000   -0.0000    0.0003    0.0000
   138 H5     *d2+      -0.0002   -0.0001   -0.0004   -0.0000   -0.0003   -0.0000   -0.0001    0.0001   -0.0000    0.0002
   139 H6     1s         0.1490    0.2330   -0.2374    0.3906    0.0319   -0.4255    0.3003   -0.0158   -0.1054   -0.0062
   140 H6     *s        -0.0380   -0.0440    0.0326   -0.0454    0.0005    0.0597   -0.0397    0.0122    0.0171   -0.0003
   141 H6     *s        -0.0546   -0.0655    0.0608   -0.0902   -0.0096    0.0997   -0.0604   -0.0052    0.0229   -0.0159
   142 H6     *px       -0.0027   -0.0049    0.0053   -0.0053   -0.0009    0.0055   -0.0064   -0.0002    0.0012    0.0001
   143 H6     *px        0.0003   -0.0051    0.0075   -0.0073   -0.0027    0.0043   -0.0073   -0.0022   -0.0018    0.0020
   144 H6     *py        0.0017    0.0010   -0.0022    0.0062    0.0016   -0.0064    0.0005   -0.0007   -0.0010    0.0012
   145 H6     *py       -0.0000   -0.0024   -0.0009    0.0094    0.0043   -0.0069   -0.0023   -0.0003    0.0000    0.0023
   146 H6     *pz        0.0013    0.0024    0.0014    0.0025   -0.0031   -0.0027    0.0010    0.0011   -0.0009   -0.0006
   147 H6     *pz        0.0009    0.0038    0.0032    0.0050   -0.0062   -0.0037    0.0015    0.0033   -0.0006   -0.0025
   148 H6     *d2-      -0.0002   -0.0003    0.0011   -0.0023   -0.0010    0.0020   -0.0005    0.0001    0.0002   -0.0003
   149 H6     *d1-       0.0002    0.0005    0.0003    0.0008   -0.0008   -0.0008    0.0004    0.0002   -0.0003   -0.0002
   150 H6     *d0       -0.0001   -0.0001    0.0010   -0.0008   -0.0009    0.0008   -0.0005    0.0000    0.0001   -0.0003
   151 H6     *d1+      -0.0003   -0.0009   -0.0002   -0.0009    0.0010    0.0008   -0.0008   -0.0004    0.0001    0.0004
   152 H6     *d2+       0.0001    0.0012   -0.0010   -0.0002   -0.0004    0.0000    0.0018    0.0004    0.0001   -0.0006
   153 H7     1s         0.1490    0.2330   -0.2374   -0.3906    0.0319    0.4255    0.3003   -0.0158    0.1054   -0.0062
   154 H7     *s        -0.0380   -0.0440    0.0326    0.0454    0.0005   -0.0597   -0.0397    0.0122   -0.0171   -0.0003
   155 H7     *s        -0.0546   -0.0655    0.0608    0.0902   -0.0096   -0.0997   -0.0604   -0.0052   -0.0229   -0.0159
   156 H7     *px        0.0027    0.0049   -0.0053   -0.0053    0.0009    0.0055    0.0064    0.0002    0.0012   -0.0001
   157 H7     *px       -0.0003    0.0051   -0.0075   -0.0073    0.0027    0.0043    0.0073    0.0022   -0.0018   -0.0020
   158 H7     *py        0.0017    0.0010   -0.0022   -0.0062    0.0016    0.0064    0.0005   -0.0007    0.0010    0.0012
   159 H7     *py       -0.0000   -0.0024   -0.0009   -0.0094    0.0043    0.0069   -0.0023   -0.0003   -0.0000    0.0023
   160 H7     *pz        0.0013    0.0024    0.0014   -0.0025   -0.0031    0.0027    0.0010    0.0011    0.0009   -0.0006
   161 H7     *pz        0.0009    0.0038    0.0032   -0.0050   -0.0062    0.0037    0.0015    0.0033    0.0006   -0.0025
   162 H7     *d2-       0.0002    0.0003   -0.0011   -0.0023    0.0010    0.0020    0.0005   -0.0001    0.0002    0.0003
   163 H7     *d1-       0.0002    0.0005    0.0003   -0.0008   -0.0008    0.0008    0.0004    0.0002    0.0003   -0.0002
   164 H7     *d0       -0.0001   -0.0001    0.0010    0.0008   -0.0009   -0.0008   -0.0005    0.0000   -0.0001   -0.0003
   165 H7     *d1+       0.0003    0.0009    0.0002   -0.0009   -0.0010    0.0008    0.0008    0.0004    0.0001   -0.0004
   166 H7     *d2+       0.0001    0.0012   -0.0010    0.0002   -0.0004   -0.0000    0.0018    0.0004   -0.0001   -0.0006
   167 H8     1s         0.2127    0.1763    0.4627   -0.0000    0.4554    0.0000    0.2793    0.1423    0.0000    0.0799
   168 H8     *s        -0.0454   -0.0375   -0.0538    0.0000   -0.0621   -0.0000   -0.0355   -0.0278   -0.0000    0.0012
   169 H8     *s        -0.0710   -0.0501   -0.1085    0.0000   -0.1110   -0.0000   -0.0557   -0.0163   -0.0000    0.0124
   170 H8     *px       -0.0000   -0.0000   -0.0000    0.0033    0.0000    0.0034    0.0000    0.0000   -0.0011   -0.0000
   171 H8     *px       -0.0000    0.0000   -0.0000    0.0082    0.0000    0.0074   -0.0000    0.0000   -0.0016    0.0000
   172 H8     *py        0.0007    0.0032    0.0000    0.0000    0.0026    0.0000   -0.0018    0.0021    0.0000    0.0016
   173 H8     *py       -0.0014    0.0043   -0.0038    0.0000    0.0061   -0.0000   -0.0066    0.0018    0.0000    0.0040
   174 H8     *pz       -0.0047   -0.0031   -0.0095   -0.0000   -0.0096    0.0000   -0.0057   -0.0016   -0.0000   -0.0010
   175 H8     *pz       -0.0036    0.0001   -0.0133   -0.0000   -0.0092    0.0000   -0.0066    0.0042   -0.0000   -0.0025
   176 H8     *d2-      -0.0000    0.0000    0.0000    0.0003    0.0000    0.0002   -0.0000    0.0000   -0.0000    0.0000
   177 H8     *d1-       0.0003   -0.0016    0.0001   -0.0000   -0.0013    0.0000    0.0011   -0.0016   -0.0000   -0.0009
   178 H8     *d0        0.0010    0.0002    0.0028    0.0000    0.0023   -0.0000    0.0019   -0.0002    0.0000    0.0004
   179 H8     *d1+       0.0000   -0.0000    0.0000   -0.0014   -0.0000   -0.0013    0.0000   -0.0000    0.0003   -0.0000
   180 H8     *d2+      -0.0002   -0.0001   -0.0004   -0.0000    0.0003   -0.0000    0.0001    0.0001   -0.0000   -0.0002
   181 H9     1s         0.1490    0.2330   -0.2374   -0.3906   -0.0319   -0.4255   -0.3003   -0.0158    0.1054    0.0062
   182 H9     *s        -0.0380   -0.0440    0.0326    0.0454   -0.0005    0.0597    0.0397    0.0122   -0.0171    0.0003
   183 H9     *s        -0.0546   -0.0655    0.0608    0.0902    0.0096    0.0997    0.0604   -0.0052   -0.0229    0.0159
   184 H9     *px        0.0027    0.0049   -0.0053   -0.0053   -0.0009   -0.0055   -0.0064    0.0002    0.0012    0.0001
   185 H9     *px       -0.0003    0.0051   -0.0075   -0.0073   -0.0027   -0.0043   -0.0073    0.0022   -0.0018    0.0020
   186 H9     *py       -0.0017   -0.0010    0.0022    0.0062    0.0016    0.0064    0.0005    0.0007   -0.0010    0.0012
   187 H9     *py        0.0000    0.0024    0.0009    0.0094    0.0043    0.0069   -0.0023    0.0003    0.0000    0.0023
   188 H9     *pz        0.0013    0.0024    0.0014   -0.0025    0.0031   -0.0027   -0.0010    0.0011    0.0009    0.0006
   189 H9     *pz        0.0009    0.0038    0.0032   -0.0050    0.0062   -0.0037   -0.0015    0.0033    0.0006    0.0025
   190 H9     *d2-      -0.0002   -0.0003    0.0011    0.0023    0.0010    0.0020    0.0005    0.0001   -0.0002    0.0003
   191 H9     *d1-      -0.0002   -0.0005   -0.0003    0.0008   -0.0008    0.0008    0.0004   -0.0002   -0.0003   -0.0002
   192 H9     *d0       -0.0001   -0.0001    0.0010    0.0008    0.0009    0.0008    0.0005    0.0000   -0.0001    0.0003
   193 H9     *d1+       0.0003    0.0009    0.0002   -0.0009    0.0010   -0.0008   -0.0008    0.0004    0.0001    0.0004
   194 H9     *d2+       0.0001    0.0012   -0.0010    0.0002    0.0004    0.0000   -0.0018    0.0004   -0.0001    0.0006
   195 H10    1s         0.1490    0.2330   -0.2374    0.3906   -0.0319    0.4255   -0.3003   -0.0158   -0.1054    0.0062
   196 H10    *s        -0.0380   -0.0440    0.0326   -0.0454   -0.0005   -0.0597    0.0397    0.0122    0.0171    0.0003
   197 H10    *s        -0.0546   -0.0655    0.0608   -0.0902    0.0096   -0.0997    0.0604   -0.0052    0.0229    0.0159
   198 H10    *px       -0.0027   -0.0049    0.0053   -0.0053    0.0009   -0.0055    0.0064   -0.0002    0.0012   -0.0001
   199 H10    *px        0.0003   -0.0051    0.0075   -0.0073    0.0027   -0.0043    0.0073   -0.0022   -0.0018   -0.0020
   200 H10    *py       -0.0017   -0.0010    0.0022   -0.0062    0.0016   -0.0064    0.0005    0.0007    0.0010    0.0012
[...]
--
 
++ Velocity transition strengths (spin-free states):
   -------------------------------------------------
     for osc. strength at least  1.00000000E-05
 
      From   To        Osc. strength     Einstein coefficients Ax, Ay, Az (sec-1)    Total A (sec-1)
     -----------------------------------------------------------------------------------------------
         1    3       2.98809104E-01  1.19167046E-06  6.60302276E-10  4.26934141E+08  4.26934141E+08
     -----------------------------------------------------------------------------------------------
--
 
++ Length and velocity gauge comparison (spin-free states):
   --------------------------------------------------------
 
 --------------------------------------------------
 A comparison between the dipole oscillator strengths in 
 length and velocity gauge will be performed
 
     All dipole oscillator differences above the tolerance of   1.00000000E-01  will be printed 
 
 Due to basis set deficiency these oscillator may be problematic 
 
 The tolerance is defined as ABS(1-O_l/O_v) 
 O_l : dipole oscillator strength in length gauge
 O_p : dipole oscillator strength in velocity gauge
 --------------------------------------------------
 
  Problematic transitions have been found
 
      From   To       Difference (%) Osc. st. (len.) Osc. st. (vel.)
     ---------------------------------------------------------------
         1    3            26.633432  2.19225984E-01  2.98809104E-01
     ---------------------------------------------------------------
 
 Number of problematic transitions =                      1
 
--
 
 Electric-dipole - electric-octupole not included
 Electric-dipole - magnetic-quadrupole not included
 
 
      ****************************************************************************************************
      *                                                                                                  *
      *                                    Special properties section                                    *
      *                                                                                                  *
      ****************************************************************************************************
 
 
++ I/O STATISTICS
 
  I. General I/O information
  - - - - - - - - - - - - - - - - - - - - - - - - - - - - - - - - - - - - - - - - - - -
  Unit  Name          Flsize      Write/Read            MBytes           Write/Read
                      (MBytes)       Calls              In/Out           Time, sec.
  - - - - - - - - - - - - - - - - - - - - - - - - - - - - - - - - - - - - - - - - - - -
   1  ANNI              0.00 .       0/       0 .      0.0/      0.0 .       0/       0
   2  RUNFILE           1.99 .     161/    1713 .      1.1/     12.4 .       0/       0
   3  ONEINT            6.66 .       0/    8207 .      0.0/   1009.4 .       0/       0
   4  JOB001            5.42 .       0/      51 .      0.0/      2.1 .       0/       0
   5  JOB002            5.42 .       0/      45 .      0.0/      2.1 .       0/       0
   6  TDMFILE          12.87 .      39/      30 .     12.9/      9.9 .       0/       0
  - - - - - - - - - - - - - - - - - - - - - - - - - - - - - - - - - - - - - - - - - - -
   *  TOTAL            32.37 .     200/   10046 .     14.0/   1035.8 .       0/       0
  - - - - - - - - - - - - - - - - - - - - - - - - - - - - - - - - - - - - - - - - - - -
 
  II. I/O Access Patterns
  - - - - - - - - - - - - - - - - - - - -
  Unit  Name               % of random
                         Write/Read calls
  - - - - - - - - - - - - - - - - - - - -
   1  ANNI                 0.0/   0.0
   2  RUNFILE             28.6/  10.7
   3  ONEINT               0.0/  12.5
   4  JOB001               0.0/  74.5
   5  JOB002               0.0/  77.8
   6  TDMFILE              0.0/  40.0
  - - - - - - - - - - - - - - - - - - - -
--
--- Stop Module: rassi at Wed May 29 11:46:04 2024 /rc=_RC_ALL_IS_WELL_ ---
--- Module rassi spent 2 seconds ---

>>> COPY MOLCAS.rassi.h5 MOLCAS.rassi.trd1.h5

>>> COPY MOLCAS.rassi.h5.bak MOLCAS.rassi.h5

>>> COPY MOLCAS.2.JobIph JOB001

>>> COPY MOLCAS.4.JobIph JOB002

*** symbolic link created: INPORB -> MOLCAS.RasOrb
--- Start Module: rassi at Wed May 29 11:46:04 2024 ---
 
()()()()()()()()()()()()()()()()()()()()()()()()()()()()()()()()()()()()()()()()()()()()()()()()()()

                                               &RASSI

                                   only a single process is used
                       available to each process: 2.0 GB of memory, 1 thread?
                                            pid: 3309645
()()()()()()()()()()()()()()()()()()()()()()()()()()()()()()()()()()()()()()()()()()()()()()()()()()
 
 
      ********************************************************************************
      *                                                                              *
      *                             General data section                             *
      *                                                                              *
      ********************************************************************************
 
   Specific data for JOBIPH file 
 JOB001                                                                         
                                                  
   -------------------------------------
 
   Header from SEWARD:
                                                                               
        Integrals generated by Gateway/Seward, Wed May 29 11:39:40 2024        
 
   CASSCF title (first line only):
       (No title given)                                                        
 
   STATE IRREP:                             1
   SPIN MULTIPLICITY:                       2
   ACTIVE ELECTRONS:                        5
   MAX RAS1 HOLES:                          0
   MAX RAS3 ELECTRONS:                      0
   NR OF CONFIG:                           75
 
   Specific data for JOBIPH file 
 JOB002                                                                         
                                                  
   -------------------------------------
 
   Header from SEWARD:
                                                                               
        Integrals generated by Gateway/Seward, Wed May 29 11:39:40 2024        
 
   CASSCF title (first line only):
       (No title given)                                                        
 
   STATE IRREP:                             1
   SPIN MULTIPLICITY:                       4
   ACTIVE ELECTRONS:                        5
   MAX RAS1 HOLES:                          0
   MAX RAS3 ELECTRONS:                      0
   NR OF CONFIG:                           24
 
  Info: creating TDMFILE
        estimated file size                   1014 kB
        TDMs in AO format
 
 ###############################################################################
 ###############################################################################
 ###                                                                         ###
 ###                                                                         ###
 ###    WARNING: EJOB used when HEFF is available, possible                  ###
 ###    extra interaction between states is ignored!                         ###
 ###                                                                         ###
 ###                                                                         ###
 ###############################################################################
 ###############################################################################
 
   The following data are common to all the states:
   ------------------------------------------------
   (note: frozen counts as inactive, deleted as secondary)
 
      Nr of irreps: 1
 
                 Total     No./Irrep 
      Irrep                  1
                             a
 
      INACTIVE      17      17
      ACTIVE         5       5
      SECONDARY    186     186
      BASIS        208     208
 
      RAS1           0       0
      RAS2           5       5
      RAS3           0       0
 
        MATRIX ELEMENTS WILL BE COMPUTED FOR THE FOLLOWING ONE-ELECTRON OPERATOR
 S, UNLESS ZERO BY SYMMETRY.
   (Herm=Hermitian, Anti=Antihermitian, Sing=Singlet operator, Trip=Triplet oper
 ator)
     MLTPL  0   1 (HERMSING)     MLTPL  1   1 (HERMSING)     MLTPL  1   2 (HERMSING)
     MLTPL  1   3 (HERMSING)     MLTPL  2   1 (HERMSING)     MLTPL  2   2 (HERMSING)
     MLTPL  2   3 (HERMSING)     MLTPL  2   4 (HERMSING)     MLTPL  2   5 (HERMSING)
     MLTPL  2   6 (HERMSING)     VELOCITY   1 (ANTISING)     VELOCITY   2 (ANTISING)
     VELOCITY   3 (ANTISING)     ANGMOM     1 (ANTISING)     ANGMOM     2 (ANTISING)
     ANGMOM     3 (ANTISING)     MLTPV  2   1 (ANTISING)     MLTPV  2   2 (ANTISING)
     MLTPV  2   3 (ANTISING)     MLTPV  2   4 (ANTISING)     MLTPV  2   5 (ANTISING)
     MLTPV  2   6 (ANTISING)
 
       EIGENSTATES OF A SPIN-FREE HAMILTONIAN WILL BE COMPUTED BASED ON:
 
  a Hamiltonian matrix assumed to be diagonal with energies read from the wavefu
 nction file(s).
 
  Nr of states:                     2
 
   State:        1   2
  JobIph:        1   2
 Root nr:        1   1
 
  HAMILTONIAN MATRIX FOR THE ORIGINAL STATES:
 
  Diagonal, with energies
   -515.03449772   -514.89855783
 
      OVERLAP MATRIX FOR THE ORIGINAL STATES:
 
  Diagonal, with elements
      1.00000000      1.00000000
 
++ Matrix elements for input states
   --------------------------------
 
  MATRIX ELEMENTS OF 1-ELECTRON OPERATORS
  FOR THE RASSCF INPUT WAVE FUNCTIONS:
 
 
 PROPERTY: MLTPL  0   COMPONENT:*   1
 ORIGIN    :   0.00000000D+00   0.00000000D+00   0.00000000D+00
 STATE     :       1                2
 
     1         1.00000000     -0.909103522E-16
     2       -0.909103522E-16   1.00000000    
 
 
 PROPERTY: MLTPL  1   COMPONENT:*   1
 ORIGIN    :   0.00000000D+00   0.00000000D+00   0.00000000D+00
 STATE     :       1                2
 
     1       -0.839223802E-09  0.318492857E-25
     2        0.318492857E-25 -0.504856601E-09
 
 
 PROPERTY: MLTPL  1   COMPONENT:*   2
 ORIGIN    :   0.00000000D+00   0.00000000D+00   0.00000000D+00
 STATE     :       1                2
 
     1        0.870612915E-09  0.649235183E-26
     2        0.649235183E-26  0.845745696E-08
 
 
 PROPERTY: MLTPL  1   COMPONENT:*   3
 ORIGIN    :   0.00000000D+00   0.00000000D+00   0.00000000D+00
 STATE     :       1                2
 
     1        0.331321620      0.132720245E-15
     2        0.132720245E-15 -0.429780127    
 
 
 PROPERTY: MLTPL  2   COMPONENT:*   1
 ORIGIN    :   0.00000000D+00   0.00000000D+00   0.22385814D-02
 STATE     :       1                2
 
     1        -21.6495230     -0.115014170E-15
     2       -0.115014170E-15  -21.1426116    
 
 
 PROPERTY: MLTPL  2   COMPONENT:*   2
 ORIGIN    :   0.00000000D+00   0.00000000D+00   0.22385814D-02
 STATE     :       1                2
 
     1       -0.186065918E-08 -0.396983080E-27
     2       -0.396983080E-27 -0.772437225E-09
 
 
 PROPERTY: MLTPL  2   COMPONENT:*   3
 ORIGIN    :   0.00000000D+00   0.00000000D+00   0.22385814D-02
 STATE     :       1                2
 
     1       -0.178430781E-08 -0.742705178E-25
     2       -0.742705178E-25  0.434232206E-09
 
 
 PROPERTY: MLTPL  2   COMPONENT:*   4
 ORIGIN    :   0.00000000D+00   0.00000000D+00   0.22385814D-02
 STATE     :       1                2
 
     1        -16.7931566     -0.127256982E-15
     2       -0.127256982E-15  -18.2096632    
 
 
 PROPERTY: MLTPL  2   COMPONENT:*   5
 ORIGIN    :   0.00000000D+00   0.00000000D+00   0.22385814D-02
 STATE     :       1                2
 
     1        0.131994327E-08  0.696518881E-26
     2        0.696518881E-26  0.159755160E-07
 
 
 PROPERTY: MLTPL  2   COMPONENT:*   6
 ORIGIN    :   0.00000000D+00   0.00000000D+00   0.22385814D-02
 STATE     :       1                2
 
     1        -15.3890105     -0.509342998E-15
     2       -0.509342998E-15  -15.4466613    
 
 
 PROPERTY: VELOCITY   COMPONENT:*   1
 ORIGIN    :   0.00000000D+00   0.00000000D+00   0.00000000D+00
 STATE     :       1                2
 
     1        0.122050918E-16  0.593133582E-26
     2       -0.593133582E-26  0.109558071E-15
 
 
 PROPERTY: VELOCITY   COMPONENT:*   2
 ORIGIN    :   0.00000000D+00   0.00000000D+00   0.00000000D+00
 STATE     :       1                2
 
     1       -0.826890215E-17  0.305451526E-26
     2       -0.305451526E-26 -0.109882425E-15
 
 
 PROPERTY: VELOCITY   COMPONENT:*   3
 ORIGIN    :   0.00000000D+00   0.00000000D+00   0.00000000D+00
 STATE     :       1                2
 
     1       -0.216054976E-16 -0.547444726E-17
     2        0.547444726E-17 -0.447200118E-16
 
 
 PROPERTY: ANGMOM     COMPONENT:*   1
 ORIGIN    :   0.00000000D+00   0.00000000D+00   0.00000000D+00
 STATE     :       1                2
 
     1        0.577283705E-16 -0.970417560E-26
     2        0.970417560E-26 -0.440708293E-15
 
 
 PROPERTY: ANGMOM     COMPONENT:*   2
 ORIGIN    :   0.00000000D+00   0.00000000D+00   0.00000000D+00
 STATE     :       1                2
 
     1       -0.472567674E-17 -0.404537991E-25
     2        0.404537991E-25 -0.273863422E-15
 
 
 PROPERTY: ANGMOM     COMPONENT:*   3
 ORIGIN    :   0.00000000D+00   0.00000000D+00   0.00000000D+00
 STATE     :       1                2
 
     1        0.201753390E-15  0.127457589E-26
     2       -0.127457589E-26  0.430310386E-16
 
 
 PROPERTY: MLTPV  2   COMPONENT:*   1
 ORIGIN    :   0.00000000D+00   0.00000000D+00   0.22385814D-02
 STATE     :       1                2
 
     1        0.453950813E-15 -0.142592244E-16
     2        0.142592244E-16  0.700440938E-15
 
 
 PROPERTY: MLTPV  2   COMPONENT:*   2
 ORIGIN    :   0.00000000D+00   0.00000000D+00   0.22385814D-02
 STATE     :       1                2
 
     1       -0.337135703E-15 -0.191756638E-27
     2        0.191756638E-27 -0.468742730E-16
 
 
 PROPERTY: MLTPV  2   COMPONENT:*   3
 ORIGIN    :   0.00000000D+00   0.00000000D+00   0.22385814D-02
 STATE     :       1                2
 
     1       -0.464888372E-16 -0.122590589E-25
     2        0.122590589E-25 -0.139933335E-15
 
 
 PROPERTY: MLTPV  2   COMPONENT:*   4
 ORIGIN    :   0.00000000D+00   0.00000000D+00   0.22385814D-02
 STATE     :       1                2
 
     1        0.352377148E-15 -0.176853087E-16
     2        0.176853087E-16  0.744551683E-15
 
 
 PROPERTY: MLTPV  2   COMPONENT:*   5
 ORIGIN    :   0.00000000D+00   0.00000000D+00   0.22385814D-02
 STATE     :       1                2
 
     1        0.209451531E-16 -0.104452373E-25
     2        0.104452373E-25 -0.103144126E-16
 
 
 PROPERTY: MLTPV  2   COMPONENT:*   6
 ORIGIN    :   0.00000000D+00   0.00000000D+00   0.22385814D-02
 STATE     :       1                2
 
     1        0.789163288E-15 -0.512632174E-16
     2        0.512632174E-16  0.100794807E-14
 
--
 
::    RASSI State    1     Total energy:    -515.03449771571604
::    RASSI State    2     Total energy:    -514.89855783391067
 
 
 
      ****************************************************************************************************
      *                                                                                                  *
      *                                         Spin-free section                                        *
      *                                                                                                  *
      *                 Note: index according to input order, order according to energy.                 *
      *                                                                                                  *
      ****************************************************************************************************
 
 
 
  SPIN-FREE ENERGIES:
  (Shifted by EMIN (a.u.) =       -515.0344977157)
 
 SF State       Relative EMIN(au)   Rel lowest level(eV)    D:o, cm**(-1)
 
     1             0.0000000000        0.0000000000              0.0000
     2             0.1359398818        3.6991126300          29835.3554
 
++ Dipole transition strengths (spin-free states):
   -----------------------------------------------
     for osc. strength at least  1.00000000E-05
 
  ( Max oscillator strength is only   1.596356851148170E-033 )
--
 
++ Velocity transition strengths (spin-free states):
   -------------------------------------------------
     for osc. strength at least  1.00000000E-05
 
  ( Max oscillator strength is only   1.469746403008977E-034 )
--
 
++ Length and velocity gauge comparison (spin-free states):
   --------------------------------------------------------
 
 --------------------------------------------------
 A comparison between the dipole oscillator strengths in 
 length and velocity gauge will be performed
 
     All dipole oscillator differences above the tolerance of   1.00000000E-01  will be printed 
 
 Due to basis set deficiency these oscillator may be problematic 
 
 The tolerance is defined as ABS(1-O_l/O_v) 
 O_l : dipole oscillator strength in length gauge
 O_p : dipole oscillator strength in velocity gauge
 --------------------------------------------------
 
 No problematic oscillator strengths above the tolerance 
  0.100000000000000       have been found
 
--
 
 Electric-dipole - electric-octupole not included
 Electric-dipole - magnetic-quadrupole not included
 
 
      ****************************************************************************************************
      *                                                                                                  *
      *                                    Special properties section                                    *
      *                                                                                                  *
      ****************************************************************************************************
 
 
++ I/O STATISTICS
 
  I. General I/O information
  - - - - - - - - - - - - - - - - - - - - - - - - - - - - - - - - - - - - - - - - - - -
  Unit  Name          Flsize      Write/Read            MBytes           Write/Read
                      (MBytes)       Calls              In/Out           Time, sec.
  - - - - - - - - - - - - - - - - - - - - - - - - - - - - - - - - - - - - - - - - - - -
   1  ANNI              0.00 .       0/       0 .      0.0/      0.0 .       0/       0
   2  RUNFILE           1.99 .     161/    1227 .      1.1/      8.9 .       0/       0
   3  ONEINT            6.66 .       0/    1871 .      0.0/    252.0 .       0/       0
   4  JOB001            5.42 .       0/      39 .      0.0/      2.1 .       0/       0
   5  JOB002            5.42 .       0/      39 .      0.0/      2.1 .       0/       0
   6  TDMFILE           2.97 .       9/       6 .      3.0/      2.0 .       0/       0
  - - - - - - - - - - - - - - - - - - - - - - - - - - - - - - - - - - - - - - - - - - -
   *  TOTAL            22.47 .     170/    3182 .      4.1/    267.0 .       0/       0
  - - - - - - - - - - - - - - - - - - - - - - - - - - - - - - - - - - - - - - - - - - -
 
  II. I/O Access Patterns
  - - - - - - - - - - - - - - - - - - - -
  Unit  Name               % of random
                         Write/Read calls
  - - - - - - - - - - - - - - - - - - - -
   1  ANNI                 0.0/   0.0
   2  RUNFILE             28.6/  10.6
   3  ONEINT               0.0/  13.3
   4  JOB001               0.0/  82.1
   5  JOB002               0.0/  82.1
   6  TDMFILE              0.0/  50.0
  - - - - - - - - - - - - - - - - - - - -
--
--- Stop Module: rassi at Wed May 29 11:46:05 2024 /rc=_RC_ALL_IS_WELL_ ---

>>> COPY MOLCAS.rassi.h5 MOLCAS.rassi.trd2.h5

>>> COPY MOLCAS.rassi.h5.bak MOLCAS.rassi.h5

>>> COPY MOLCAS.rassi.h5.bak MOLCAS.rassi.h5

.##################.
.# Happy landing! #.
.##################.

    Timing: Wall=385.12 User=354.84 System=27.08
