[Molden Format]
[N_Atoms]
                    10
[Atoms] (AU)
C1          1      6           0.00000000     -2.42606819      2.17152208
C2          2      6           0.00000000      0.00000000      0.70256238
C3          3      6           0.00000000      2.42606819      2.17152208
S4          4     16           0.00000000      0.00000000     -2.36312142
H5          5      1           0.00000000     -2.11192012      4.19555104
H6          6      1           1.64685852     -3.54009954      1.66585027
H7          7      1          -1.64685852     -3.54009954      1.66585027
H8          8      1           0.00000000      2.11192012      4.19555104
H9          9      1          -1.64685852      3.54009954      1.66585027
H10        10      1           1.64685852      3.54009954      1.66585027
[5D]
[7F]
[9G]
[Charge] (Mulliken)
 -0.121510752466523     
 -9.701178020460510E-002
 -0.121511166680405     
  0.615461819029170     
  0.146675491585383     
  0.107805180874213     
  0.107805209519439     
  0.146675430478914     
  0.107805269183491     
  0.107805298675959     
[GTO] (AU)
   1
   s  12
  0.339800000E+05  0.910000318E-04
  0.508900000E+04  0.704000246E-03
  0.115700000E+04  0.369300129E-02
  0.326600000E+03  0.153600054E-01
  0.106100000E+03  0.529290185E-01
  0.381100000E+02  0.147043051E+00
  0.147500000E+02  0.305631107E+00
  0.603500000E+01  0.399345140E+00
  0.253000000E+01  0.217051076E+00
  0.735500000E+00  0.158940056E-01
  0.290500000E+00 -0.308400108E-02
  0.111100000E+00  0.978000342E-03
   s  12
  0.339800000E+05 -0.189999874E-04
  0.508900000E+04 -0.150999900E-03
  0.115700000E+04 -0.784999478E-03
  0.326600000E+03 -0.332399779E-02
  0.106100000E+03 -0.115119923E-01
  0.381100000E+02 -0.341599773E-01
  0.147500000E+02 -0.771729487E-01
  0.603500000E+01 -0.141492906E+00
  0.253000000E+01 -0.118018922E+00
  0.735500000E+00  0.273805818E+00
  0.290500000E+00  0.586509610E+00
  0.111100000E+00  0.285429810E+00
   s   1
  0.735500000E+00  0.100000000E+01
   s   1
  0.290500000E+00  0.100000000E+01
   s   1
  0.111100000E+00  0.100000000E+01
   p   6
  0.345100000E+02  0.537799733E-02
  0.791500000E+01  0.361319821E-01
  0.236800000E+01  0.142492929E+00
  0.813200000E+00  0.342149830E+00
  0.289000000E+00  0.463863770E+00
  0.100700000E+00  0.250027876E+00
   p   1
  0.813200000E+00  0.100000000E+01
   p   1
  0.289000000E+00  0.100000000E+01
   p   1
  0.100700000E+00  0.100000000E+01
   d   1
  0.184800000E+01  0.100000000E+01
   d   1
  0.649000000E+00  0.100000000E+01
   d   1
  0.228000000E+00  0.100000000E+01
   f   1
  0.141900000E+01  0.100000000E+01
   f   1
  0.485000000E+00  0.100000000E+01
   g   1
  0.101100000E+01  0.100000000E+01
 
   2
   s  12
  0.339800000E+05  0.910000318E-04
  0.508900000E+04  0.704000246E-03
  0.115700000E+04  0.369300129E-02
  0.326600000E+03  0.153600054E-01
  0.106100000E+03  0.529290185E-01
  0.381100000E+02  0.147043051E+00
  0.147500000E+02  0.305631107E+00
  0.603500000E+01  0.399345140E+00
  0.253000000E+01  0.217051076E+00
  0.735500000E+00  0.158940056E-01
  0.290500000E+00 -0.308400108E-02
  0.111100000E+00  0.978000342E-03
   s  12
  0.339800000E+05 -0.189999874E-04
  0.508900000E+04 -0.150999900E-03
  0.115700000E+04 -0.784999478E-03
  0.326600000E+03 -0.332399779E-02
  0.106100000E+03 -0.115119923E-01
  0.381100000E+02 -0.341599773E-01
  0.147500000E+02 -0.771729487E-01
  0.603500000E+01 -0.141492906E+00
  0.253000000E+01 -0.118018922E+00
  0.735500000E+00  0.273805818E+00
  0.290500000E+00  0.586509610E+00
  0.111100000E+00  0.285429810E+00
   s   1
  0.735500000E+00  0.100000000E+01
   s   1
  0.290500000E+00  0.100000000E+01
   s   1
  0.111100000E+00  0.100000000E+01
   p   6
  0.345100000E+02  0.537799733E-02
  0.791500000E+01  0.361319821E-01
  0.236800000E+01  0.142492929E+00
  0.813200000E+00  0.342149830E+00
  0.289000000E+00  0.463863770E+00
  0.100700000E+00  0.250027876E+00
   p   1
  0.813200000E+00  0.100000000E+01
   p   1
  0.289000000E+00  0.100000000E+01
   p   1
  0.100700000E+00  0.100000000E+01
   d   1
  0.184800000E+01  0.100000000E+01
   d   1
  0.649000000E+00  0.100000000E+01
   d   1
  0.228000000E+00  0.100000000E+01
   f   1
  0.141900000E+01  0.100000000E+01
   f   1
  0.485000000E+00  0.100000000E+01
   g   1
  0.101100000E+01  0.100000000E+01
 
   3
   s  12
  0.339800000E+05  0.910000318E-04
  0.508900000E+04  0.704000246E-03
  0.115700000E+04  0.369300129E-02
  0.326600000E+03  0.153600054E-01
  0.106100000E+03  0.529290185E-01
  0.381100000E+02  0.147043051E+00
  0.147500000E+02  0.305631107E+00
  0.603500000E+01  0.399345140E+00
  0.253000000E+01  0.217051076E+00
  0.735500000E+00  0.158940056E-01
  0.290500000E+00 -0.308400108E-02
  0.111100000E+00  0.978000342E-03
   s  12
  0.339800000E+05 -0.189999874E-04
  0.508900000E+04 -0.150999900E-03
  0.115700000E+04 -0.784999478E-03
  0.326600000E+03 -0.332399779E-02
  0.106100000E+03 -0.115119923E-01
  0.381100000E+02 -0.341599773E-01
  0.147500000E+02 -0.771729487E-01
  0.603500000E+01 -0.141492906E+00
  0.253000000E+01 -0.118018922E+00
  0.735500000E+00  0.273805818E+00
  0.290500000E+00  0.586509610E+00
  0.111100000E+00  0.285429810E+00
   s   1
  0.735500000E+00  0.100000000E+01
   s   1
  0.290500000E+00  0.100000000E+01
   s   1
  0.111100000E+00  0.100000000E+01
   p   6
  0.345100000E+02  0.537799733E-02
  0.791500000E+01  0.361319821E-01
  0.236800000E+01  0.142492929E+00
  0.813200000E+00  0.342149830E+00
  0.289000000E+00  0.463863770E+00
  0.100700000E+00  0.250027876E+00
   p   1
  0.813200000E+00  0.100000000E+01
   p   1
  0.289000000E+00  0.100000000E+01
   p   1
  0.100700000E+00  0.100000000E+01
   d   1
  0.184800000E+01  0.100000000E+01
   d   1
  0.649000000E+00  0.100000000E+01
   d   1
  0.228000000E+00  0.100000000E+01
   f   1
  0.141900000E+01  0.100000000E+01
   f   1
  0.485000000E+00  0.100000000E+01
   g   1
  0.101100000E+01  0.100000000E+01
 
   4
   s  16
  0.727800000E+06  0.236024915E-04
  0.109000000E+06  0.183481934E-03
  0.248000000E+05  0.964277652E-03
  0.701400000E+04  0.406536853E-02
  0.227800000E+04  0.146972947E-01
  0.814700000E+03  0.465080832E-01
  0.313400000E+03  0.125507955E+00
  0.127700000E+03  0.268432903E+00
  0.544800000E+02  0.384808861E+00
  0.238500000E+02  0.265371904E+00
  0.942800000E+01  0.437325842E-01
  0.429000000E+01 -0.378806863E-02
  0.190900000E+01  0.218082921E-02
  0.627000000E+00 -0.836943698E-03
  0.287300000E+00  0.448087838E-03
  0.117200000E+00 -0.125292955E-03
   s  16
  0.727800000E+06 -0.652179702E-05
  0.109000000E+06 -0.506631545E-04
  0.248000000E+05 -0.266833287E-03
  0.701400000E+04 -0.112601121E-02
  0.227800000E+04 -0.411186442E-02
  0.814700000E+03 -0.132454142E-01
  0.313400000E+03 -0.377004406E-01
  0.127700000E+03 -0.898554967E-01
  0.544800000E+02 -0.167098180E+00
  0.238500000E+02 -0.169354182E+00
  0.942800000E+01  0.127824138E+00
  0.429000000E+01  0.564862608E+00
  0.190900000E+01  0.431767464E+00
  0.627000000E+00  0.389398419E-01
  0.287300000E+00 -0.730260786E-02
  0.117200000E+00  0.192327207E-02
   s  16
  0.727800000E+06  0.189406100E-05
  0.109000000E+06  0.146948077E-04
  0.248000000E+05  0.775460408E-04
  0.701400000E+04  0.326509172E-03
  0.227800000E+04  0.119686063E-02
  0.814700000E+03  0.384799202E-02
  0.313400000E+03  0.110539058E-01
  0.127700000E+03  0.264645139E-01
  0.544800000E+02  0.508771268E-01
  0.238500000E+02  0.530030279E-01
  0.942800000E+01 -0.425518224E-01
  0.429000000E+01 -0.250853132E+00
  0.190900000E+01 -0.333152175E+00
  0.627000000E+00  0.263796139E+00
  0.287300000E+00  0.666849351E+00
  0.117200000E+00  0.288451152E+00
   s   1
  0.627000000E+00  0.100000000E+01
   s   1
  0.287300000E+00  0.100000000E+01
   s   1
  0.117200000E+00  0.100000000E+01
   p  11
  0.154600000E+04  0.441182929E-03
  0.366400000E+03  0.377570939E-02
  0.118400000E+03  0.198359968E-01
  0.445300000E+02  0.742062881E-01
  0.183800000E+02  0.197326968E+00
  0.796500000E+01  0.351850943E+00
  0.354100000E+01  0.378686939E+00
  0.159100000E+01  0.170930973E+00
  0.620500000E+00  0.151586976E-01
  0.242000000E+00  0.671980892E-04
  0.901400000E-01  0.405490935E-03
   p  11
  0.154600000E+04 -0.113110076E-03
  0.366400000E+03 -0.958581640E-03
  0.118400000E+03 -0.513471343E-02
  0.445300000E+02 -0.192641129E-01
  0.183800000E+02 -0.535980358E-01
  0.796500000E+01 -0.960333641E-01
  0.354100000E+01 -0.118183079E+00
  0.159100000E+01  0.923194617E-02
  0.620500000E+00  0.358841240E+00
  0.242000000E+00  0.525818351E+00
  0.901400000E-01  0.248872166E+00
   p   1
  0.620500000E+00  0.100000000E+01
   p   1
  0.242000000E+00  0.100000000E+01
   p   1
  0.901400000E-01  0.100000000E+01
   d   1
  0.203000000E+00  0.100000000E+01
   d   1
  0.504000000E+00  0.100000000E+01
   d   1
  0.125000000E+01  0.100000000E+01
   f   1
  0.335000000E+00  0.100000000E+01
   f   1
  0.869000000E+00  0.100000000E+01
   g   1
  0.683000000E+00  0.100000000E+01
 
   5
   s   6
  0.826400000E+02  0.200600080E-02
  0.124100000E+02  0.153430061E-01
  0.282400000E+01  0.755790302E-01
  0.797700000E+00  0.256875103E+00
  0.258100000E+00  0.497368199E+00
  0.898900000E-01  0.296133118E+00
   s   1
  0.797700000E+00  0.100000000E+01
   s   1
  0.258100000E+00  0.100000000E+01
   s   1
  0.898900000E-01  0.100000000E+01
   p   1
  0.229200000E+01  0.100000000E+01
   p   1
  0.838000000E+00  0.100000000E+01
   p   1
  0.292000000E+00  0.100000000E+01
   d   1
  0.206200000E+01  0.100000000E+01
   d   1
  0.662000000E+00  0.100000000E+01
   f   1
  0.139700000E+01  0.100000000E+01
 
   6
   s   6
  0.826400000E+02  0.200600080E-02
  0.124100000E+02  0.153430061E-01
  0.282400000E+01  0.755790302E-01
  0.797700000E+00  0.256875103E+00
  0.258100000E+00  0.497368199E+00
  0.898900000E-01  0.296133118E+00
   s   1
  0.797700000E+00  0.100000000E+01
   s   1
  0.258100000E+00  0.100000000E+01
   s   1
  0.898900000E-01  0.100000000E+01
   p   1
  0.229200000E+01  0.100000000E+01
   p   1
  0.838000000E+00  0.100000000E+01
   p   1
  0.292000000E+00  0.100000000E+01
   d   1
  0.206200000E+01  0.100000000E+01
   d   1
  0.662000000E+00  0.100000000E+01
   f   1
  0.139700000E+01  0.100000000E+01
 
   7
   s   6
  0.826400000E+02  0.200600080E-02
  0.124100000E+02  0.153430061E-01
  0.282400000E+01  0.755790302E-01
  0.797700000E+00  0.256875103E+00
  0.258100000E+00  0.497368199E+00
  0.898900000E-01  0.296133118E+00
   s   1
  0.797700000E+00  0.100000000E+01
   s   1
  0.258100000E+00  0.100000000E+01
   s   1
  0.898900000E-01  0.100000000E+01
   p   1
  0.229200000E+01  0.100000000E+01
   p   1
  0.838000000E+00  0.100000000E+01
   p   1
  0.292000000E+00  0.100000000E+01
   d   1
  0.206200000E+01  0.100000000E+01
   d   1
  0.662000000E+00  0.100000000E+01
   f   1
  0.139700000E+01  0.100000000E+01
 
   8
   s   6
  0.826400000E+02  0.200600080E-02
  0.124100000E+02  0.153430061E-01
  0.282400000E+01  0.755790302E-01
  0.797700000E+00  0.256875103E+00
  0.258100000E+00  0.497368199E+00
  0.898900000E-01  0.296133118E+00
   s   1
  0.797700000E+00  0.100000000E+01
   s   1
  0.258100000E+00  0.100000000E+01
   s   1
  0.898900000E-01  0.100000000E+01
   p   1
  0.229200000E+01  0.100000000E+01
   p   1
  0.838000000E+00  0.100000000E+01
   p   1
  0.292000000E+00  0.100000000E+01
   d   1
  0.206200000E+01  0.100000000E+01
   d   1
  0.662000000E+00  0.100000000E+01
   f   1
  0.139700000E+01  0.100000000E+01
 
   9
   s   6
  0.826400000E+02  0.200600080E-02
  0.124100000E+02  0.153430061E-01
  0.282400000E+01  0.755790302E-01
  0.797700000E+00  0.256875103E+00
  0.258100000E+00  0.497368199E+00
  0.898900000E-01  0.296133118E+00
   s   1
  0.797700000E+00  0.100000000E+01
   s   1
  0.258100000E+00  0.100000000E+01
   s   1
  0.898900000E-01  0.100000000E+01
   p   1
  0.229200000E+01  0.100000000E+01
   p   1
  0.838000000E+00  0.100000000E+01
   p   1
  0.292000000E+00  0.100000000E+01
   d   1
  0.206200000E+01  0.100000000E+01
   d   1
  0.662000000E+00  0.100000000E+01
   f   1
  0.139700000E+01  0.100000000E+01
 
  10
   s   6
  0.826400000E+02  0.200600080E-02
  0.124100000E+02  0.153430061E-01
  0.282400000E+01  0.755790302E-01
  0.797700000E+00  0.256875103E+00
  0.258100000E+00  0.497368199E+00
  0.898900000E-01  0.296133118E+00
   s   1
  0.797700000E+00  0.100000000E+01
   s   1
  0.258100000E+00  0.100000000E+01
   s   1
  0.898900000E-01  0.100000000E+01
   p   1
  0.229200000E+01  0.100000000E+01
   p   1
  0.838000000E+00  0.100000000E+01
   p   1
  0.292000000E+00  0.100000000E+01
   d   1
  0.206200000E+01  0.100000000E+01
   d   1
  0.662000000E+00  0.100000000E+01
   f   1
  0.139700000E+01  0.100000000E+01
 
[MO]
Sym=     1a  
Ene=   -92.3150
Spin= Alpha
Occup=    2.00000
   1        -0.00000791
   2        -0.00002790
   3        -0.00002467
   4         0.00009271
   5         0.00031358
   6         0.00000000
   7         0.00001973
   8        -0.00001215
   9        -0.00000000
  10        -0.00002408
  11         0.00001842
  12        -0.00000000
  13        -0.00005780
  14        -0.00006568
  15        -0.00000000
  16         0.00008446
  17        -0.00000638
  18         0.00000124
  19        -0.00000000
  20        -0.00000036
  21        -0.00000009
  22        -0.00000000
  23        -0.00001303
  24         0.00000000
  25         0.00001186
  26         0.00001050
  27         0.00000000
  28        -0.00008495
  29         0.00000000
  30         0.00002662
  31        -0.00000842
  32         0.00000000
  33         0.00000288
  34         0.00000000
  35         0.00000049
  36         0.00000016
  37        -0.00000000
  38         0.00000000
  39         0.00000012
  40        -0.00001688
  41         0.00000000
  42         0.00001324
  43        -0.00000757
  44        -0.00000000
  45         0.00000000
  46        -0.00002910
  47         0.00000119
  48        -0.00000000
  49        -0.00000125
  50        -0.00000158
  51        -0.00000000
  52        -0.00000000
  53         0.00000207
  54         0.00000000
  55         0.00000000
  56        -0.00001143
  57        -0.00004549
  58         0.00001344
  59        -0.00014729
  60        -0.00044985
  61         0.00000000
  62         0.00000000
  63         0.00000709
  64        -0.00000000
  65         0.00000000
  66         0.00001534
  67         0.00000000
  68        -0.00000000
  69         0.00015928
  70         0.00000000
  71        -0.00000000
  72        -0.00030255
  73        -0.00000811
  74        -0.00000000
  75         0.00000000
  76         0.00000256
  77         0.00000000
  78        -0.00000166
  79         0.00000000
  80        -0.00000000
  81        -0.00000480
  82        -0.00000000
  83        -0.00008706
  84        -0.00000000
  85        -0.00000000
  86        -0.00000627
  87         0.00000000
  88         0.00000920
  89        -0.00000000
  90        -0.00000000
  91         0.00000299
  92        -0.00000000
  93         0.00000000
  94         0.00000000
  95        -0.00006045
  96         0.00000000
  97        -0.00000000
  98        -0.00001621
  99         0.00000000
 100        -0.00000000
 101         0.00000000
 102         0.00001353
 103        -0.00000000
 104         0.00000000
 105        -0.00000105
 106         0.00000000
 107        -0.00000000
 108         0.00000000
 109        -0.00000192
 110        -0.00000000
 111        -0.00000791
 112        -0.00002790
 113        -0.00002467
 114         0.00009271
 115         0.00031358
 116         0.00000000
 117        -0.00001973
 118        -0.00001215
 119        -0.00000000
 120         0.00002408
 121         0.00001842
 122        -0.00000000
 123         0.00005780
 124        -0.00006568
 125        -0.00000000
 126        -0.00008446
 127        -0.00000638
 128         0.00000124
 129        -0.00000000
 130         0.00000036
 131        -0.00000009
 132         0.00000000
 133        -0.00001303
 134         0.00000000
 135        -0.00001186
 136         0.00001050
 137        -0.00000000
 138        -0.00008495
 139         0.00000000
 140        -0.00002662
 141        -0.00000842
 142        -0.00000000
 143         0.00000288
 144         0.00000000
 145        -0.00000049
 146         0.00000016
 147         0.00000000
 148        -0.00000000
 149        -0.00000012
 150        -0.00001688
 151         0.00000000
 152        -0.00001324
 153        -0.00000757
 154         0.00000000
 155         0.00000000
 156         0.00002910
 157         0.00000119
 158        -0.00000000
 159         0.00000125
 160        -0.00000158
 161         0.00000000
 162        -0.00000000
 163        -0.00000207
 164         0.00000000
 165        -0.00000000
 166         0.99994297
 167        -0.00039902
 168        -0.00081366
 169        -0.00003779
 170         0.00085328
 171         0.00019306
 172         0.00000000
 173         0.00000000
 174         0.00012426
 175         0.00000000
 176         0.00000000
 177         0.00032418
 178        -0.00000000
 179        -0.00000000
 180        -0.00025223
 181        -0.00000000
 182         0.00000000
 183         0.00013280
 184        -0.00000000
 185         0.00000000
 186        -0.00010750
 187         0.00013371
 188        -0.00000000
 189         0.00000000
 190         0.00000015
 191        -0.00000000
 192         0.00002493
 193        -0.00000000
 194         0.00000000
 195        -0.00000516
 196         0.00000000
 197        -0.00002180
 198         0.00000000
 199        -0.00000000
 200        -0.00000103
 201         0.00000000
 202         0.00006708
 203        -0.00000000
 204         0.00000000
 205        -0.00000548
 206        -0.00000000
 207         0.00000000
 208         0.00000000
 209        -0.00002021
 210         0.00000000
 211         0.00000000
 212        -0.00000001
 213         0.00000000
 214        -0.00000000
 215        -0.00000000
 216         0.00000675
 217        -0.00000000
 218         0.00000000
 219        -0.00000348
 220        -0.00000000
 221        -0.00000000
 222        -0.00000000
 223         0.00000023
 224        -0.00000000
 225        -0.00000335
 226         0.00001046
 227         0.00009262
 228        -0.00001084
 229        -0.00000000
 230         0.00000270
 231        -0.00000172
 232         0.00000000
 233        -0.00001295
 234         0.00000316
 235        -0.00000000
 236        -0.00001684
 237        -0.00003199
 238        -0.00000067
 239        -0.00000000
 240        -0.00000031
 241         0.00000116
 242         0.00000000
 243        -0.00000182
 244        -0.00000000
 245         0.00000810
 246        -0.00000272
 247        -0.00000000
 248         0.00000097
 249         0.00000000
 250        -0.00000047
 251        -0.00000062
 252        -0.00000000
 253         0.00000000
 254         0.00000048
 255         0.00002095
 256        -0.00002525
 257        -0.00013168
 258         0.00000520
 259        -0.00000064
 260         0.00000097
 261         0.00000147
 262         0.00001108
 263        -0.00001108
 264        -0.00000963
 265         0.00002604
 266        -0.00000930
 267        -0.00001637
 268        -0.00000008
 269        -0.00000023
 270         0.00000043
 271         0.00000022
 272         0.00000174
 273        -0.00000027
 274         0.00000601
 275        -0.00000431
 276        -0.00000094
 277         0.00000152
 278         0.00000043
 279         0.00000051
 280        -0.00000054
 281        -0.00000026
 282         0.00000013
 283        -0.00000078
 284        -0.00000094
 285         0.00002095
 286        -0.00002525
 287        -0.00013168
 288         0.00000520
 289         0.00000064
 290         0.00000097
 291         0.00000147
 292        -0.00001108
 293        -0.00001108
 294        -0.00000963
 295        -0.00002604
 296        -0.00000930
 297        -0.00001637
 298        -0.00000008
 299         0.00000023
 300         0.00000043
 301         0.00000022
 302        -0.00000174
 303        -0.00000027
 304        -0.00000601
 305        -0.00000431
 306        -0.00000094
 307        -0.00000152
 308         0.00000043
 309        -0.00000051
 310        -0.00000054
 311        -0.00000026
 312        -0.00000013
 313         0.00000078
 314        -0.00000094
 315        -0.00000335
 316         0.00001046
 317         0.00009262
 318        -0.00001084
 319         0.00000000
 320        -0.00000270
 321        -0.00000172
 322         0.00000000
 323         0.00001295
 324         0.00000316
 325        -0.00000000
 326         0.00001684
 327        -0.00003199
 328        -0.00000067
 329        -0.00000000
 330         0.00000031
 331         0.00000116
 332        -0.00000000
 333        -0.00000182
 334         0.00000000
 335        -0.00000810
 336        -0.00000272
 337        -0.00000000
 338         0.00000097
 339         0.00000000
 340         0.00000047
 341        -0.00000062
 342         0.00000000
 343         0.00000000
 344        -0.00000048
 345         0.00002095
 346        -0.00002525
 347        -0.00013168
 348         0.00000520
 349         0.00000064
 350        -0.00000097
 351         0.00000147
 352        -0.00001108
 353         0.00001108
 354        -0.00000963
 355        -0.00002604
 356         0.00000930
 357        -0.00001637
 358        -0.00000008
 359         0.00000023
 360        -0.00000043
 361         0.00000022
 362         0.00000174
 363        -0.00000027
 364        -0.00000601
 365         0.00000431
 366        -0.00000094
 367         0.00000152
 368         0.00000043
 369        -0.00000051
 370         0.00000054
 371        -0.00000026
 372         0.00000013
 373         0.00000078
 374         0.00000094
 375         0.00002095
 376        -0.00002525
 377        -0.00013168
 378         0.00000520
 379        -0.00000064
 380        -0.00000097
 381         0.00000147
 382         0.00001108
 383         0.00001108
 384        -0.00000963
 385         0.00002604
 386         0.00000930
 387        -0.00001637
 388        -0.00000008
 389        -0.00000023
 390        -0.00000043
 391         0.00000022
 392        -0.00000174
 393        -0.00000027
 394         0.00000601
 395         0.00000431
 396        -0.00000094
 397        -0.00000152
 398         0.00000043
 399         0.00000051
 400         0.00000054
 401        -0.00000026
 402        -0.00000013
 403        -0.00000078
 404         0.00000094
Sym=     2a  
Ene=   -11.4950
Spin= Alpha
Occup=    2.00000
   1        -0.00495440
   2        -0.00038511
   3        -0.00023373
   4         0.00086033
   5         0.00125197
   6        -0.00000000
   7        -0.00044360
   8         0.00028285
   9         0.00000000
  10         0.00002346
  11         0.00005596
  12         0.00000000
  13        -0.00167516
  14         0.00053470
  15         0.00000000
  16         0.00012024
  17        -0.00006073
  18         0.00000471
  19        -0.00000000
  20         0.00005431
  21         0.00003697
  22         0.00000000
  23         0.00003287
  24         0.00000000
  25        -0.00006340
  26        -0.00002497
  27        -0.00000000
  28        -0.00034159
  29         0.00000000
  30         0.00008968
  31         0.00024049
  32        -0.00000000
  33        -0.00000473
  34        -0.00000000
  35        -0.00000296
  36        -0.00001327
  37        -0.00000000
  38        -0.00000000
  39         0.00001100
  40         0.00015251
  41        -0.00000000
  42         0.00004767
  43         0.00028631
  44         0.00000000
  45        -0.00000000
  46        -0.00017970
  47         0.00002875
  48         0.00000000
  49        -0.00002261
  50        -0.00001111
  51         0.00000000
  52         0.00000000
  53         0.00002814
  54        -0.00002604
  55         0.00000000
  56        -1.00028349
  57        -0.00529664
  58        -0.00304894
  59         0.00677873
  60         0.00387213
  61        -0.00000000
  62        -0.00000000
  63         0.00832605
  64        -0.00000000
  65        -0.00000000
  66        -0.00355551
  67         0.00000000
  68         0.00000000
  69        -0.00399529
  70         0.00000000
  71         0.00000000
  72        -0.00327458
  73        -0.00021339
  74         0.00000000
  75        -0.00000000
  76        -0.00000339
  77         0.00000000
  78         0.00036483
  79        -0.00000000
  80         0.00000000
  81         0.00038757
  82        -0.00000000
  83         0.00038626
  84         0.00000000
  85         0.00000000
  86        -0.00115604
  87        -0.00000000
  88         0.00020194
  89         0.00000000
  90         0.00000000
  91         0.00019051
  92         0.00000000
  93         0.00000000
  94        -0.00000000
  95        -0.00012426
  96         0.00000000
  97        -0.00000000
  98        -0.00009682
  99        -0.00000000
 100        -0.00000000
 101        -0.00000000
 102         0.00000833
 103        -0.00000000
 104        -0.00000000
 105         0.00000871
 106        -0.00000000
 107        -0.00000000
 108        -0.00000000
 109        -0.00005284
 110         0.00000000
 111        -0.00495440
 112        -0.00038511
 113        -0.00023372
 114         0.00086032
 115         0.00125197
 116        -0.00000000
 117         0.00044360
 118         0.00028285
 119        -0.00000000
 120        -0.00002346
 121         0.00005596
 122         0.00000000
 123         0.00167516
 124         0.00053471
 125         0.00000000
 126        -0.00012024
 127        -0.00006072
 128         0.00000471
 129        -0.00000000
 130        -0.00005431
 131         0.00003697
 132        -0.00000000
 133         0.00003287
 134         0.00000000
 135         0.00006340
 136        -0.00002497
 137         0.00000000
 138        -0.00034159
 139        -0.00000000
 140        -0.00008968
 141         0.00024049
 142         0.00000000
 143        -0.00000473
 144        -0.00000000
 145         0.00000296
 146        -0.00001327
 147        -0.00000000
 148        -0.00000000
 149        -0.00001100
 150         0.00015251
 151        -0.00000000
 152        -0.00004767
 153         0.00028631
 154        -0.00000000
 155        -0.00000000
 156         0.00017970
 157         0.00002875
 158         0.00000000
 159         0.00002261
 160        -0.00001111
 161        -0.00000000
 162         0.00000000
 163        -0.00002814
 164        -0.00002604
 165         0.00000000
 166         0.00003369
 167         0.00014671
 168         0.00014734
 169         0.00049007
 170        -0.00150815
 171        -0.00241466
 172         0.00000000
 173         0.00000000
 174        -0.00002398
 175         0.00000000
 176         0.00000000
 177         0.00008931
 178        -0.00000000
 179        -0.00000000
 180         0.00005537
 181        -0.00000000
 182         0.00000000
 183        -0.00180174
 184        -0.00000000
 185        -0.00000000
 186        -0.00051046
 187        -0.00053967
 188        -0.00000000
 189         0.00000000
 190         0.00015721
 191         0.00000000
 192        -0.00040793
 193        -0.00000000
 194         0.00000000
 195        -0.00000823
 196        -0.00000000
 197         0.00005104
 198         0.00000000
 199        -0.00000000
 200         0.00000063
 201         0.00000000
 202        -0.00013962
 203        -0.00000000
 204         0.00000000
 205         0.00010875
 206         0.00000000
 207        -0.00000000
 208         0.00000000
 209        -0.00006431
 210         0.00000000
 211        -0.00000000
 212        -0.00003193
 213        -0.00000000
 214         0.00000000
 215         0.00000000
 216        -0.00001734
 217        -0.00000000
 218         0.00000000
 219        -0.00000244
 220         0.00000000
 221         0.00000000
 222         0.00000000
 223         0.00000461
 224         0.00000000
 225         0.00004318
 226        -0.00001982
 227        -0.00043181
 228        -0.00006504
 229         0.00000000
 230        -0.00003737
 231        -0.00000209
 232        -0.00000000
 233         0.00017545
 234         0.00004030
 235        -0.00000000
 236         0.00016037
 237         0.00024851
 238         0.00000464
 239        -0.00000000
 240        -0.00000254
 241         0.00000388
 242        -0.00000000
 243        -0.00002459
 244         0.00000000
 245        -0.00014098
 246        -0.00002805
 247         0.00000000
 248        -0.00000387
 249        -0.00000000
 250         0.00002629
 251         0.00000212
 252        -0.00000000
 253         0.00000000
 254         0.00001514
 255        -0.00001302
 256        -0.00005186
 257        -0.00127794
 258        -0.00005536
 259        -0.00001515
 260        -0.00001778
 261         0.00002044
 262         0.00011052
 263         0.00006091
 264        -0.00010992
 265         0.00036825
 266        -0.00019414
 267        -0.00016946
 268         0.00000138
 269         0.00000076
 270        -0.00000572
 271        -0.00000210
 272        -0.00000293
 273        -0.00001511
 274         0.00004343
 275        -0.00002754
 276        -0.00008006
 277        -0.00000633
 278        -0.00000745
 279        -0.00000503
 280        -0.00001595
 281        -0.00000588
 282         0.00000484
 283         0.00000837
 284         0.00000211
 285        -0.00001302
 286        -0.00005186
 287        -0.00127794
 288        -0.00005536
 289         0.00001515
 290        -0.00001778
 291         0.00002044
 292        -0.00011052
 293         0.00006091
 294        -0.00010991
 295        -0.00036825
 296        -0.00019414
 297        -0.00016946
 298         0.00000138
 299        -0.00000076
 300        -0.00000572
 301        -0.00000210
 302         0.00000293
 303        -0.00001511
 304        -0.00004343
 305        -0.00002754
 306        -0.00008006
 307         0.00000633
 308        -0.00000745
 309         0.00000503
 310        -0.00001595
 311        -0.00000588