[Molden Format]
[N_Atoms]
                    10
[Atoms] (AU)
C1          1      6           0.00000000     -2.42606819      2.17152208
C2          2      6           0.00000000      0.00000000      0.70256238
C3          3      6           0.00000000      2.42606819      2.17152208
S4          4     16           0.00000000      0.00000000     -2.36312142
H5          5      1           0.00000000     -2.11192012      4.19555104
H6          6      1           1.64685852     -3.54009954      1.66585027
H7          7      1          -1.64685852     -3.54009954      1.66585027
H8          8      1           0.00000000      2.11192012      4.19555104
H9          9      1          -1.64685852      3.54009954      1.66585027
H10        10      1           1.64685852      3.54009954      1.66585027
[5D]
[7F]
[9G]
[Charge] (Mulliken)
  0.000000000000000E+000
  0.000000000000000E+000
  0.000000000000000E+000
  0.000000000000000E+000
  0.000000000000000E+000
  0.000000000000000E+000
  0.000000000000000E+000
  0.000000000000000E+000
  0.000000000000000E+000
  0.000000000000000E+000
[GTO] (AU)
   1
   s  12
  0.339800000E+05  0.910000318E-04
  0.508900000E+04  0.704000246E-03
  0.115700000E+04  0.369300129E-02
  0.326600000E+03  0.153600054E-01
  0.106100000E+03  0.529290185E-01
  0.381100000E+02  0.147043051E+00
  0.147500000E+02  0.305631107E+00
  0.603500000E+01  0.399345140E+00
  0.253000000E+01  0.217051076E+00
  0.735500000E+00  0.158940056E-01
  0.290500000E+00 -0.308400108E-02
  0.111100000E+00  0.978000342E-03
   s  12
  0.339800000E+05 -0.189999874E-04
  0.508900000E+04 -0.150999900E-03
  0.115700000E+04 -0.784999478E-03
  0.326600000E+03 -0.332399779E-02
  0.106100000E+03 -0.115119923E-01
  0.381100000E+02 -0.341599773E-01
  0.147500000E+02 -0.771729487E-01
  0.603500000E+01 -0.141492906E+00
  0.253000000E+01 -0.118018922E+00
  0.735500000E+00  0.273805818E+00
  0.290500000E+00  0.586509610E+00
  0.111100000E+00  0.285429810E+00
   s   1
  0.735500000E+00  0.100000000E+01
   s   1
  0.290500000E+00  0.100000000E+01
   s   1
  0.111100000E+00  0.100000000E+01
   p   6
  0.345100000E+02  0.537799733E-02
  0.791500000E+01  0.361319821E-01
  0.236800000E+01  0.142492929E+00
  0.813200000E+00  0.342149830E+00
  0.289000000E+00  0.463863770E+00
  0.100700000E+00  0.250027876E+00
   p   1
  0.813200000E+00  0.100000000E+01
   p   1
  0.289000000E+00  0.100000000E+01
   p   1
  0.100700000E+00  0.100000000E+01
   d   1
  0.184800000E+01  0.100000000E+01
   d   1
  0.649000000E+00  0.100000000E+01
   d   1
  0.228000000E+00  0.100000000E+01
   f   1
  0.141900000E+01  0.100000000E+01
   f   1
  0.485000000E+00  0.100000000E+01
   g   1
  0.101100000E+01  0.100000000E+01
 
   2
   s  12
  0.339800000E+05  0.910000318E-04
  0.508900000E+04  0.704000246E-03
  0.115700000E+04  0.369300129E-02
  0.326600000E+03  0.153600054E-01
  0.106100000E+03  0.529290185E-01
  0.381100000E+02  0.147043051E+00
  0.147500000E+02  0.305631107E+00
  0.603500000E+01  0.399345140E+00
  0.253000000E+01  0.217051076E+00
  0.735500000E+00  0.158940056E-01
  0.290500000E+00 -0.308400108E-02
  0.111100000E+00  0.978000342E-03
   s  12
  0.339800000E+05 -0.189999874E-04
  0.508900000E+04 -0.150999900E-03
  0.115700000E+04 -0.784999478E-03
  0.326600000E+03 -0.332399779E-02
  0.106100000E+03 -0.115119923E-01
  0.381100000E+02 -0.341599773E-01
  0.147500000E+02 -0.771729487E-01
  0.603500000E+01 -0.141492906E+00
  0.253000000E+01 -0.118018922E+00
  0.735500000E+00  0.273805818E+00
  0.290500000E+00  0.586509610E+00
  0.111100000E+00  0.285429810E+00
   s   1
  0.735500000E+00  0.100000000E+01
   s   1
  0.290500000E+00  0.100000000E+01
   s   1
  0.111100000E+00  0.100000000E+01
   p   6
  0.345100000E+02  0.537799733E-02
  0.791500000E+01  0.361319821E-01
  0.236800000E+01  0.142492929E+00
  0.813200000E+00  0.342149830E+00
  0.289000000E+00  0.463863770E+00
  0.100700000E+00  0.250027876E+00
   p   1
  0.813200000E+00  0.100000000E+01
   p   1
  0.289000000E+00  0.100000000E+01
   p   1
  0.100700000E+00  0.100000000E+01
   d   1
  0.184800000E+01  0.100000000E+01
   d   1
  0.649000000E+00  0.100000000E+01
   d   1
  0.228000000E+00  0.100000000E+01
   f   1
  0.141900000E+01  0.100000000E+01
   f   1
  0.485000000E+00  0.100000000E+01
   g   1
  0.101100000E+01  0.100000000E+01
 
   3
   s  12
  0.339800000E+05  0.910000318E-04
  0.508900000E+04  0.704000246E-03
  0.115700000E+04  0.369300129E-02
  0.326600000E+03  0.153600054E-01
  0.106100000E+03  0.529290185E-01
  0.381100000E+02  0.147043051E+00
  0.147500000E+02  0.305631107E+00
  0.603500000E+01  0.399345140E+00
  0.253000000E+01  0.217051076E+00
  0.735500000E+00  0.158940056E-01
  0.290500000E+00 -0.308400108E-02
  0.111100000E+00  0.978000342E-03
   s  12
  0.339800000E+05 -0.189999874E-04
  0.508900000E+04 -0.150999900E-03
  0.115700000E+04 -0.784999478E-03
  0.326600000E+03 -0.332399779E-02
  0.106100000E+03 -0.115119923E-01
  0.381100000E+02 -0.341599773E-01
  0.147500000E+02 -0.771729487E-01
  0.603500000E+01 -0.141492906E+00
  0.253000000E+01 -0.118018922E+00
  0.735500000E+00  0.273805818E+00
  0.290500000E+00  0.586509610E+00
  0.111100000E+00  0.285429810E+00
   s   1
  0.735500000E+00  0.100000000E+01
   s   1
  0.290500000E+00  0.100000000E+01
   s   1
  0.111100000E+00  0.100000000E+01
   p   6
  0.345100000E+02  0.537799733E-02
  0.791500000E+01  0.361319821E-01
  0.236800000E+01  0.142492929E+00
  0.813200000E+00  0.342149830E+00
  0.289000000E+00  0.463863770E+00
  0.100700000E+00  0.250027876E+00
   p   1
  0.813200000E+00  0.100000000E+01
   p   1
  0.289000000E+00  0.100000000E+01
   p   1
  0.100700000E+00  0.100000000E+01
   d   1
  0.184800000E+01  0.100000000E+01
   d   1
  0.649000000E+00  0.100000000E+01
   d   1
  0.228000000E+00  0.100000000E+01
   f   1
  0.141900000E+01  0.100000000E+01
   f   1
  0.485000000E+00  0.100000000E+01
   g   1
  0.101100000E+01  0.100000000E+01
 
   4
   s  16
  0.727800000E+06  0.236024915E-04
  0.109000000E+06  0.183481934E-03
  0.248000000E+05  0.964277652E-03
  0.701400000E+04  0.406536853E-02
  0.227800000E+04  0.146972947E-01
  0.814700000E+03  0.465080832E-01
  0.313400000E+03  0.125507955E+00
  0.127700000E+03  0.268432903E+00
  0.544800000E+02  0.384808861E+00
  0.238500000E+02  0.265371904E+00
  0.942800000E+01  0.437325842E-01
  0.429000000E+01 -0.378806863E-02
  0.190900000E+01  0.218082921E-02
  0.627000000E+00 -0.836943698E-03
  0.287300000E+00  0.448087838E-03
  0.117200000E+00 -0.125292955E-03
   s  16
  0.727800000E+06 -0.652179702E-05
  0.109000000E+06 -0.506631545E-04
  0.248000000E+05 -0.266833287E-03
  0.701400000E+04 -0.112601121E-02
  0.227800000E+04 -0.411186442E-02
  0.814700000E+03 -0.132454142E-01
  0.313400000E+03 -0.377004406E-01
  0.127700000E+03 -0.898554967E-01
  0.544800000E+02 -0.167098180E+00
  0.238500000E+02 -0.169354182E+00
  0.942800000E+01  0.127824138E+00
  0.429000000E+01  0.564862608E+00
  0.190900000E+01  0.431767464E+00
  0.627000000E+00  0.389398419E-01
  0.287300000E+00 -0.730260786E-02
  0.117200000E+00  0.192327207E-02
   s  16
  0.727800000E+06  0.189406100E-05
  0.109000000E+06  0.146948077E-04
  0.248000000E+05  0.775460408E-04
  0.701400000E+04  0.326509172E-03
  0.227800000E+04  0.119686063E-02
  0.814700000E+03  0.384799202E-02
  0.313400000E+03  0.110539058E-01
  0.127700000E+03  0.264645139E-01
  0.544800000E+02  0.508771268E-01
  0.238500000E+02  0.530030279E-01
  0.942800000E+01 -0.425518224E-01
  0.429000000E+01 -0.250853132E+00
  0.190900000E+01 -0.333152175E+00
  0.627000000E+00  0.263796139E+00
  0.287300000E+00  0.666849351E+00
  0.117200000E+00  0.288451152E+00
   s   1
  0.627000000E+00  0.100000000E+01
   s   1
  0.287300000E+00  0.100000000E+01
   s   1
  0.117200000E+00  0.100000000E+01
   p  11
  0.154600000E+04  0.441182929E-03
  0.366400000E+03  0.377570939E-02
  0.118400000E+03  0.198359968E-01
  0.445300000E+02  0.742062881E-01
  0.183800000E+02  0.197326968E+00
  0.796500000E+01  0.351850943E+00
  0.354100000E+01  0.378686939E+00
  0.159100000E+01  0.170930973E+00
  0.620500000E+00  0.151586976E-01
  0.242000000E+00  0.671980892E-04
  0.901400000E-01  0.405490935E-03
   p  11
  0.154600000E+04 -0.113110076E-03
  0.366400000E+03 -0.958581640E-03
  0.118400000E+03 -0.513471343E-02
  0.445300000E+02 -0.192641129E-01
  0.183800000E+02 -0.535980358E-01
  0.796500000E+01 -0.960333641E-01
  0.354100000E+01 -0.118183079E+00
  0.159100000E+01  0.923194617E-02
  0.620500000E+00  0.358841240E+00
  0.242000000E+00  0.525818351E+00
  0.901400000E-01  0.248872166E+00
   p   1
  0.620500000E+00  0.100000000E+01
   p   1
  0.242000000E+00  0.100000000E+01
   p   1
  0.901400000E-01  0.100000000E+01
   d   1
  0.203000000E+00  0.100000000E+01
   d   1
  0.504000000E+00  0.100000000E+01
   d   1
  0.125000000E+01  0.100000000E+01
   f   1
  0.335000000E+00  0.100000000E+01
   f   1
  0.869000000E+00  0.100000000E+01
   g   1
  0.683000000E+00  0.100000000E+01
 
   5
   s   6
  0.826400000E+02  0.200600080E-02
  0.124100000E+02  0.153430061E-01
  0.282400000E+01  0.755790302E-01
  0.797700000E+00  0.256875103E+00
  0.258100000E+00  0.497368199E+00
  0.898900000E-01  0.296133118E+00
   s   1
  0.797700000E+00  0.100000000E+01
   s   1
  0.258100000E+00  0.100000000E+01
   s   1
  0.898900000E-01  0.100000000E+01
   p   1
  0.229200000E+01  0.100000000E+01
   p   1
  0.838000000E+00  0.100000000E+01
   p   1
  0.292000000E+00  0.100000000E+01
   d   1
  0.206200000E+01  0.100000000E+01
   d   1
  0.662000000E+00  0.100000000E+01
   f   1
  0.139700000E+01  0.100000000E+01
 
   6
   s   6
  0.826400000E+02  0.200600080E-02
  0.124100000E+02  0.153430061E-01
  0.282400000E+01  0.755790302E-01
  0.797700000E+00  0.256875103E+00
  0.258100000E+00  0.497368199E+00
  0.898900000E-01  0.296133118E+00
   s   1
  0.797700000E+00  0.100000000E+01
   s   1
  0.258100000E+00  0.100000000E+01
   s   1
  0.898900000E-01  0.100000000E+01
   p   1
  0.229200000E+01  0.100000000E+01
   p   1
  0.838000000E+00  0.100000000E+01
   p   1
  0.292000000E+00  0.100000000E+01
   d   1
  0.206200000E+01  0.100000000E+01
   d   1
  0.662000000E+00  0.100000000E+01
   f   1
  0.139700000E+01  0.100000000E+01
 
   7
   s   6
  0.826400000E+02  0.200600080E-02
  0.124100000E+02  0.153430061E-01
  0.282400000E+01  0.755790302E-01
  0.797700000E+00  0.256875103E+00
  0.258100000E+00  0.497368199E+00
  0.898900000E-01  0.296133118E+00
   s   1
  0.797700000E+00  0.100000000E+01
   s   1
  0.258100000E+00  0.100000000E+01
   s   1
  0.898900000E-01  0.100000000E+01
   p   1
  0.229200000E+01  0.100000000E+01
   p   1
  0.838000000E+00  0.100000000E+01
   p   1
  0.292000000E+00  0.100000000E+01
   d   1
  0.206200000E+01  0.100000000E+01
   d   1
  0.662000000E+00  0.100000000E+01
   f   1
  0.139700000E+01  0.100000000E+01
 
   8
   s   6
  0.826400000E+02  0.200600080E-02
  0.124100000E+02  0.153430061E-01
  0.282400000E+01  0.755790302E-01
  0.797700000E+00  0.256875103E+00
  0.258100000E+00  0.497368199E+00
  0.898900000E-01  0.296133118E+00
   s   1
  0.797700000E+00  0.100000000E+01
   s   1
  0.258100000E+00  0.100000000E+01
   s   1
  0.898900000E-01  0.100000000E+01
   p   1
  0.229200000E+01  0.100000000E+01
   p   1
  0.838000000E+00  0.100000000E+01
   p   1
  0.292000000E+00  0.100000000E+01
   d   1
  0.206200000E+01  0.100000000E+01
   d   1
  0.662000000E+00  0.100000000E+01
   f   1
  0.139700000E+01  0.100000000E+01
 
   9
   s   6
  0.826400000E+02  0.200600080E-02
  0.124100000E+02  0.153430061E-01
  0.282400000E+01  0.755790302E-01
  0.797700000E+00  0.256875103E+00
  0.258100000E+00  0.497368199E+00
  0.898900000E-01  0.296133118E+00
   s   1
  0.797700000E+00  0.100000000E+01
   s   1
  0.258100000E+00  0.100000000E+01
   s   1
  0.898900000E-01  0.100000000E+01
   p   1
  0.229200000E+01  0.100000000E+01
   p   1
  0.838000000E+00  0.100000000E+01
   p   1
  0.292000000E+00  0.100000000E+01
   d   1
  0.206200000E+01  0.100000000E+01
   d   1
  0.662000000E+00  0.100000000E+01
   f   1
  0.139700000E+01  0.100000000E+01
 
  10
   s   6
  0.826400000E+02  0.200600080E-02
  0.124100000E+02  0.153430061E-01
  0.282400000E+01  0.755790302E-01
  0.797700000E+00  0.256875103E+00
  0.258100000E+00  0.497368199E+00
  0.898900000E-01  0.296133118E+00
   s   1
  0.797700000E+00  0.100000000E+01
   s   1
  0.258100000E+00  0.100000000E+01
   s   1
  0.898900000E-01  0.100000000E+01
   p   1
  0.229200000E+01  0.100000000E+01
   p   1
  0.838000000E+00  0.100000000E+01
   p   1
  0.292000000E+00  0.100000000E+01
   d   1
  0.206200000E+01  0.100000000E+01
   d   1
  0.662000000E+00  0.100000000E+01
   f   1
  0.139700000E+01  0.100000000E+01
 
[MO]
Sym=     1a  
Ene=   -92.2910
Spin= Alpha
Occup=    2.00000
   1         0.00000142
   2         0.00000409
   3         0.00000004
   4        -0.00000010
   5        -0.00000020
   6        -0.00000000
   7         0.00000351
   8        -0.00000662
   9         0.00000000
  10         0.00000004
  11        -0.00000007
  12        -0.00000000
  13        -0.00000004
  14         0.00000008
  15        -0.00000000
  16        -0.00000022
  17         0.00000042
  18        -0.00000000
  19        -0.00000000
  20         0.00000000
  21         0.00000000
  22        -0.00000000
  23         0.00000000
  24         0.00000000
  25        -0.00000000
  26        -0.00000000
  27         0.00000000
  28         0.00000000
  29         0.00000000
  30         0.00000000
  31        -0.00000000
  32         0.00000000
  33         0.00000000
  34        -0.00000000
  35         0.00000000
  36         0.00000000
  37        -0.00000000
  38        -0.00000000
  39         0.00000000
  40         0.00000000
  41        -0.00000000
  42        -0.00000000
  43         0.00000000
  44         0.00000000
  45         0.00000000
  46         0.00000000
  47         0.00000000
  48        -0.00000000
  49         0.00000000
  50         0.00000000
  51        -0.00000000
  52        -0.00000000
  53        -0.00000000
  54         0.00000000
  55         0.00000000
  56         0.00000787
  57         0.00004684
  58         0.00000047
  59        -0.00000106
  60        -0.00000233
  61         0.00000000
  62         0.00000000
  63        -0.00005808
  64        -0.00000000
  65         0.00000000
  66        -0.00000060
  67         0.00000000
  68        -0.00000000
  69         0.00000068
  70         0.00000000
  71        -0.00000000
  72         0.00000371
  73         0.00000000
  74        -0.00000000
  75         0.00000000
  76        -0.00000000
  77         0.00000000
  78        -0.00000000
  79         0.00000000
  80        -0.00000000
  81         0.00000000
  82        -0.00000000
  83        -0.00000000
  84         0.00000000
  85        -0.00000000
  86         0.00000000
  87         0.00000000
  88        -0.00000000
  89         0.00000000
  90        -0.00000000
  91        -0.00000000
  92        -0.00000000
  93         0.00000000
  94        -0.00000000
  95         0.00000000
  96         0.00000000
  97         0.00000000
  98         0.00000000
  99         0.00000000
 100        -0.00000000
 101         0.00000000
 102        -0.00000000
 103        -0.00000000
 104         0.00000000
 105         0.00000000
 106         0.00000000
 107        -0.00000000
 108         0.00000000
 109        -0.00000000
 110        -0.00000000
 111         0.00000142
 112         0.00000409
 113         0.00000004
 114        -0.00000010
 115        -0.00000020
 116        -0.00000000
 117        -0.00000351
 118        -0.00000662
 119         0.00000000
 120        -0.00000004
 121        -0.00000007
 122         0.00000000
 123         0.00000004
 124         0.00000008
 125         0.00000000
 126         0.00000022
 127         0.00000042
 128        -0.00000000
 129        -0.00000000
 130        -0.00000000
 131         0.00000000
 132        -0.00000000
 133         0.00000000
 134         0.00000000
 135         0.00000000
 136        -0.00000000
 137         0.00000000
 138        -0.00000000
 139         0.00000000
 140        -0.00000000
 141        -0.00000000
 142         0.00000000
 143         0.00000000
 144        -0.00000000
 145        -0.00000000
 146        -0.00000000
 147         0.00000000
 148        -0.00000000
 149         0.00000000
 150         0.00000000
 151        -0.00000000
 152        -0.00000000
 153         0.00000000
 154        -0.00000000
 155         0.00000000
 156         0.00000000
 157         0.00000000
 158         0.00000000
 159        -0.00000000
 160        -0.00000000
 161        -0.00000000
 162        -0.00000000
 163        -0.00000000
 164        -0.00000000
 165        -0.00000000
 166         0.99749294
 167        -0.01823364
 168        -0.02837355
 169         0.00847038
 170         0.01846495
 171         0.00861684
 172         0.00000000
 173         0.00000000
 174         0.00000026
 175         0.00000000
 176         0.00000000
 177         0.00000015
 178        -0.00000000
 179        -0.00000000
 180         0.00000002
 181        -0.00000000
 182        -0.00000000
 183         0.00000002
 184        -0.00000000
 185        -0.00000000
 186         0.00000001
 187         0.00000000
 188         0.00000000
 189         0.00000000
 190         0.00000000
 191        -0.00000000
 192         0.00000000
 193        -0.00000000
 194        -0.00000000
 195        -0.00000000
 196         0.00000000
 197        -0.00000000
 198        -0.00000000
 199         0.00000000
 200         0.00000000
 201         0.00000000
 202         0.00000000
 203         0.00000000
 204         0.00000000
 205         0.00000000
 206        -0.00000000
 207        -0.00000000
 208         0.00000000
 209         0.00000000
 210        -0.00000000
 211        -0.00000000
 212        -0.00000000
 213         0.00000000
 214         0.00000000
 215        -0.00000000
 216         0.00000000
 217        -0.00000000
 218         0.00000000
 219         0.00000000
 220        -0.00000000
 221         0.00000000
 222        -0.00000000
 223         0.00000000
 224        -0.00000000
 225         0.00000076
 226        -0.00000001
 227        -0.00000011
 228        -0.00000008
 229        -0.00000000
 230        -0.00000000
 231        -0.00000000
 232         0.00000000
 233         0.00000000
 234         0.00000000
 235         0.00000000
 236         0.00000000
 237         0.00000000
 238        -0.00000000
 239         0.00000000
 240         0.00000000
 241         0.00000000
 242        -0.00000000
 243        -0.00000000
 244        -0.00000000
 245        -0.00000000
 246        -0.00000000
 247         0.00000000
 248         0.00000000
 249         0.00000000
 250         0.00000000
 251         0.00000000
 252         0.00000000
 253         0.00000000
 254        -0.00000000
 255         0.00000327
 256        -0.00000003
 257        -0.00000047
 258        -0.00000033
 259         0.00000000
 260        -0.00000000
 261        -0.00000000
 262        -0.00000000
 263         0.00000000
 264         0.00000000
 265        -0.00000000
 266         0.00000000
 267         0.00000000
 268         0.00000000
 269        -0.00000000
 270         0.00000000
 271         0.00000000
 272        -0.00000000
 273        -0.00000000
 274        -0.00000000
 275        -0.00000000
 276         0.00000000
 277        -0.00000000
 278         0.00000000
 279         0.00000000
 280         0.00000000
 281         0.00000000
 282        -0.00000000
 283         0.00000000
 284         0.00000000
 285         0.00000327
 286        -0.00000003
 287        -0.00000047
 288        -0.00000033
 289        -0.00000000
 290         0.00000000
 291         0.00000000
 292         0.00000000
 293         0.00000000
 294        -0.00000000
 295         0.00000000
 296         0.00000000
 297         0.00000000
 298         0.00000000
 299        -0.00000000
 300         0.00000000
 301        -0.00000000
 302         0.00000000
 303        -0.00000000
 304         0.00000000
 305        -0.00000000
 306         0.00000000
 307         0.00000000
 308        -0.00000000
 309         0.00000000
 310        -0.00000000
 311        -0.00000000
 312        -0.00000000
 313         0.00000000
 314         0.00000000
 315         0.00000076
 316        -0.00000001
 317        -0.00000011
 318        -0.00000008
 319        -0.00000000
 320         0.00000000
 321        -0.00000000
 322        -0.00000000
 323        -0.00000000
 324         0.00000000
 325        -0.00000000
 326        -0.00000000
 327         0.00000000
 328        -0.00000000
 329        -0.00000000
 330         0.00000000
 331         0.00000000
 332         0.00000000
 333        -0.00000000
 334         0.00000000
 335         0.00000000
 336        -0.00000000
 337        -0.00000000
 338         0.00000000
 339        -0.00000000
 340        -0.00000000
 341         0.00000000
 342        -0.00000000
 343        -0.00000000
 344        -0.00000000
 345         0.00000327
 346        -0.00000003
 347        -0.00000047
 348        -0.00000033
 349         0.00000000
 350        -0.00000000
 351         0.00000000
 352        -0.00000000
 353         0.00000000
 354        -0.00000000
 355        -0.00000000
 356         0.00000000
 357        -0.00000000
 358        -0.00000000
 359        -0.00000000
 360         0.00000000
 361        -0.00000000
 362         0.00000000
 363         0.00000000
 364         0.00000000
 365        -0.00000000
 366        -0.00000000
 367         0.00000000
 368        -0.00000000
 369         0.00000000
 370        -0.00000000
 371         0.00000000
 372        -0.00000000
 373         0.00000000
 374        -0.00000000
 375         0.00000327
 376        -0.00000003
 377        -0.00000047
 378        -0.00000033
 379        -0.00000000
 380        -0.00000000
 381         0.00000000
 382         0.00000000
 383         0.00000000
 384        -0.00000000
 385         0.00000000
 386         0.00000000
 387        -0.00000000
 388        -0.00000000
 389         0.00000000
 390        -0.00000000
 391         0.00000000
 392        -0.00000000
 393         0.00000000
 394         0.00000000
 395         0.00000000
 396        -0.00000000
 397        -0.00000000
 398         0.00000000
 399        -0.00000000
 400        -0.00000000
 401        -0.00000000
 402        -0.00000000
 403         0.00000000
 404        -0.00000000
Sym=     2a  
Ene=   -11.3510
Spin= Alpha
Occup=    2.00000
   1         0.55253274
   2         0.01084391
   3        -0.00203991
   4        -0.00535542
   5        -0.00071220
   6         0.00000000
   7         0.00183542
   8        -0.00094431
   9        -0.00000000
  10         0.00001910
  11        -0.00000983
  12        -0.00000000
  13        -0.00002146
  14         0.00001104
  15        -0.00000000
  16        -0.00011723
  17         0.00006032
  18        -0.00000000
  19        -0.00000000
  20         0.00000000
  21        -0.00000000
  22        -0.00000000
  23         0.00000000
  24         0.00000000
  25        -0.00000000
  26        -0.00000000
  27         0.00000000
  28         0.00000000
  29         0.00000000
  30        -0.00000000
  31        -0.00000000
  32         0.00000000
  33         0.00000000
  34         0.00000000
  35         0.00000000
  36        -0.00000000
  37        -0.00000000
  38         0.00000000
  39        -0.00000000
  40        -0.00000000
  41         0.00000000
  42         0.00000000
  43         0.00000000
  44        -0.00000000
  45         0.00000000
  46         0.00000000
  47         0.00000000
  48        -0.00000000
  49         0.00000000
  50        -0.00000000
  51        -0.00000000
  52        -0.00000000
  53        -0.00000000
  54         0.00000000
  55         0.00000000
  56         0.62856013
  57         0.01315028
  58        -0.00231195
  59        -0.00610950
  60        -0.00085075
  61        -0.00000000
  62         0.00000000
  63         0.00169229
  64         0.00000000
  65        -0.00000000
  66         0.00001761
  67         0.00000000
  68        -0.00000000
  69        -0.00001978
  70         0.00000000
  71         0.00000000
  72        -0.00010809
  73         0.00000000
  74         0.00000000
  75         0.00000000
  76        -0.00000000
  77        -0.00000000
  78        -0.00000000
  79         0.00000000
  80         0.00000000
  81         0.00000000
  82         0.00000000
  83        -0.00000000
  84        -0.00000000
  85         0.00000000
  86         0.00000000
  87         0.00000000
  88        -0.00000000
  89         0.00000000
  90        -0.00000000
  91        -0.00000000
  92        -0.00000000
  93         0.00000000
  94         0.00000000
  95         0.00000000
  96         0.00000000
  97         0.00000000
  98         0.00000000
  99         0.00000000
 100        -0.00000000
 101         0.00000000
 102        -0.00000000
 103        -0.00000000
 104         0.00000000
 105        -0.00000000
 106        -0.00000000
 107         0.00000000
 108         0.00000000
 109        -0.00000000
 110         0.00000000
 111         0.55253274
 112         0.01084391
 113        -0.00203991
 114        -0.00535542
 115        -0.00071220
 116         0.00000000
 117        -0.00183542
 118        -0.00094431
 119        -0.00000000
 120        -0.00001910
 121        -0.00000983
 122        -0.00000000
 123         0.00002146
 124         0.00001104
 125        -0.00000000
 126         0.00011723
 127         0.00006032
 128        -0.00000000
 129        -0.00000000
 130        -0.00000000
 131         0.00000000
 132         0.00000000
 133         0.00000000
 134         0.00000000
 135         0.00000000
 136        -0.00000000
 137        -0.00000000
 138         0.00000000
 139         0.00000000
 140         0.00000000
 141        -0.00000000
 142        -0.00000000
 143        -0.00000000
 144         0.00000000
 145         0.00000000
 146         0.00000000
 147         0.00000000
 148         0.00000000
 149         0.00000000
 150        -0.00000000
 151         0.00000000
 152        -0.00000000
 153         0.00000000
 154         0.00000000
 155         0.00000000
 156        -0.00000000
 157        -0.00000000
 158        -0.00000000
 159        -0.00000000
 160         0.00000000
 161         0.00000000
 162        -0.00000000
 163         0.00000000
 164         0.00000000
 165        -0.00000000
 166        -0.00005922
 167         0.00102412
 168         0.00215566
 169         0.00000598
 170        -0.00006001
 171        -0.00000863
 172        -0.00000000
 173         0.00000000
 174        -0.00023826
 175        -0.00000000
 176         0.00000000
 177         0.00207465
 178         0.00000000
 179        -0.00000000
 180         0.00017792
 181         0.00000000
 182        -0.00000000
 183         0.00013079
 184         0.00000000
 185        -0.00000000
 186         0.00012579
 187         0.00000000
 188        -0.00000000
 189         0.00000000
 190         0.00000000
 191         0.00000000
 192         0.00000000
 193        -0.00000000
 194         0.00000000
 195        -0.00000000
 196         0.00000000
 197        -0.00000000
 198        -0.00000000
 199         0.00000000
 200         0.00000000
 201        -0.00000000
 202         0.00000000
 203        -0.00000000
 204         0.00000000
 205         0.00000000
 206         0.00000000
 207         0.00000000
 208        -0.00000000
 209         0.00000000
 210         0.00000000
 211        -0.00000000
 212        -0.00000000
 213         0.00000000
 214        -0.00000000
 215         0.00000000
 216         0.00000000
 217        -0.00000000
 218        -0.00000000
 219         0.00000000
 220        -0.00000000
 221         0.00000000
 222         0.00000000
 223        -0.00000000
 224         0.00000000
 225         0.00330736
 226        -0.00003125
 227        -0.00047047
 228        -0.00033653
 229        -0.00000000
 230        -0.00000000
 231        -0.00000000
 232         0.00000000
 233         0.00000000
 234         0.00000000
 235        -0.00000000
 236         0.00000000
 237         0.00000000
 238         0.00000000
 239         0.00000000
 240        -0.00000000
 241        -0.00000000
 242         0.00000000
 243        -0.00000000
 244        -0.00000000
 245        -0.00000000
 246        -0.00000000
 247        -0.00000000
 248         0.00000000
 249         0.00000000
 250         0.00000000
 251         0.00000000
 252        -0.00000000
 253         0.00000000
 254         0.00000000
 255         0.00318511
 256        -0.00003010
 257        -0.00045308
 258        -0.00032409
 259         0.00000000
 260         0.00000000
 261         0.00000000
 262        -0.00000000
 263         0.00000000
 264         0.00000000
 265        -0.00000000
 266         0.00000000
 267         0.00000000
 268        -0.00000000
 269         0.00000000
 270         0.00000000
 271         0.00000000
 272        -0.00000000
 273        -0.00000000
 274         0.00000000
 275        -0.00000000
 276         0.00000000
 277        -0.00000000
 278         0.00000000
 279         0.00000000
 280        -0.00000000
 281         0.00000000
 282         0.00000000
 283        -0.00000000
 284         0.00000000
 285         0.00318511
 286        -0.00003010
 287        -0.00045308
 288        -0.00032409
 289         0.00000000
 290         0.00000000
 291         0.00000000
 292        -0.00000000
 293        -0.00000000
 294        -0.00000000
 295        -0.00000000
 296        -0.00000000
 297        -0.00000000
 298         0.00000000
 299        -0.00000000
 300         0.00000000
 301         0.00000000
 302        -0.00000000
 303         0.00000000
 304        -0.00000000
 305        -0.00000000
 306         0.00000000
 307        -0.00000000
 308         0.00000000
 309         0.00000000
 310         0.00000000
 311        -0.00000000