   This run of MOLCAS is using the pymolcas driver

                             OPE
                             OPE          NMOL  CASOP  ENMOLC A   SO
                 OPE        NMOLC        AS  OP EN  MO LC     AS  OP
                OPENM       OL CA        SO  PE NM  OL CA     SOP EN
                OP EN      MO   LC       AS  OP ENMOL  CASO   PENMOL
                OP  EN     MO   LC       AS  OP EN     MO     LC ASO
               OP   E  NMOL  C  AS       OP  EN MO     LC     AS  OP
               OP  E   NMO   LC AS        OPEN  MO     LCASOP EN   M
               O  PEN   MO  LCA  SO
            OPE   NMO   L   CAS    OP
        OPENMOL  CASOP     ENMOL   CASOPE
     OPENMOLCA   SOPENMOLCASOPEN   MOLCASOPE
    OPENMOLCAS   OP           EN   MOL    CAS
    OPENMOLCAS       OP  ENM        O     LCA
    OPENMOLCAS    OPEN  MOLCASO     P  E  NMO
    OPENMOLCAS     OP               E  N  MOL
    OPENMOLCA   SO           PENM   O  L  CAS    OPEN    MO    LCAS
    OPENMOLCA   SOP           ENM   O  L  CAS   OP  EN  MOLC  AS   O
    OPENMOLCA   SOPE           NM      O  LCA   S      OP  EN MO
    OPENMOLC                AS         O  PEN   M      OL  CA  SOPE
    OPENMO        LCASOPE  NMOL        C  ASO   P      ENMOLC     AS
    OPE     NMO      LCA  SO     P     E   NM   OL  CA SO  PE N   MO
          OPENMOLCA            SOPE   NMO        LCAS  O    P  ENMO
     OPENMOLCASOPENMOLCASOPENMOLCASOPENMOLCA
        OPENMOLCASOPENMOLCASOPENMOLCASOPE
            OPENMOLCASOPENMOLCASOPENM
               OPENMOLCASOPENMOLCA        version: 23.06
                   OPENMOLCASO
                       OPE                tag: 105-gffc277a3d

 OpenMolcas is free software; you can redistribute it and/or modify it
 under the terms of the GNU Lesser General Public License version 2.1.
 OpenMolcas is distributed in the hope that it will be useful, but it
 is provided "as is" and without any express or implied warranties.
 For more details see the full text of the license in the file
 LICENSE or in <http://www.gnu.org/licenses/>.

                 Copyright (C) The OpenMolcas Authors
           For the author list and the recommended citation,
                   consult the file CONTRIBUTORS.md

           *************************************************
           * pymolcas version py2.25                       *
           *   build 835137438ff31f0b5f7e578ef8193798      *
           *   (after the EMIL interpreter by V. Veryazov) *
           *************************************************

configuration info
------------------
Host name: manganese.itc.univie.ac.at (Linux)
C Compiler ID: GNU
C flags: -std=gnu99
Fortran Compiler ID: Intel
Fortran flags: -fpp -i8 -heap-arrays
Definitions: _MOLCAS_;_I8_;_LINUX_
Parallel: OFF (GA=OFF)


   ----------------------------------------------------------------------
  |
  |           Project: MOLCAS
  |    Submitted from: /public/manganese/scratch/tmp/sascha.664377/master
  |      Scratch area: /public/manganese/scratch/tmp/sascha.664377/master
  |   Save outputs to: WORKDIR
  |            Molcas: /usr/license/openmolcas/v23.06
  |
  | Scratch area is NOT empty
  |
  |        MOLCASMEM = 2000
  |    MOLCAS_DRIVER = /usr/license/openmolcas/v23.06/pymolcas
  |    MOLCAS_NPROCS = 1
  |    MOLCAS_SOURCE = /usr/license/openmolcas/v23.06
  | MOLCAS_STRUCTURE = 0
  |
   ----------------------------------------------------------------------

++ ---------   Input file   ---------

&GATEWAY
COORD=MOLCAS.xyz
GROUP=NOSYM
BASIS=cc-pVQZ
AMFI
angmom
0 0 0
RICD
CDTHreshold=0.0001

&SEWARD

&RASSCF
SPIN=1
NACTEL=6 0 0
INACTIVE=17
RAS2=5
ITERATIONS=200,100
CIROOT=5 5 1
THRS=0.000000010000 0.000100000000 0.000100000000

&CASPT2
SHIFT=0.0
IMAGINARY= 0.100
IPEASHIFT= 0.25
MAXITER=120
MULTISTATE= 3 1 2 3
OUTPUT=BRIEF
PRWF=0.1

>>> COPY MOLCAS.JobMix MOLCAS.1.JobIph

&RASSCF
SPIN=2
NACTEL=5 0 0
INACTIVE=17
RAS2=5
ITERATIONS=200,100
CIROOT=2 2 1
THRS=0.000000010000 0.000100000000 0.000100000000

&CASPT2
SHIFT=0.0
IMAGINARY= 0.100
IPEASHIFT= 0.25
MAXITER=120
MULTISTATE= 1 1
OUTPUT=BRIEF
PRWF=0.1

>>> COPY MOLCAS.JobMix MOLCAS.2.JobIph

&RASSCF
SPIN=3
NACTEL=6 0 0
INACTIVE=17
RAS2=5
ITERATIONS=200,100
CIROOT=4 4 1
THRS=0.000000010000 0.000100000000 0.000100000000

&CASPT2
SHIFT=0.0
IMAGINARY= 0.100
IPEASHIFT= 0.25
MAXITER=120
MULTISTATE= 2 1 2
OUTPUT=BRIEF
PRWF=0.1

>>> COPY MOLCAS.JobMix MOLCAS.3.JobIph

&RASSCF
SPIN=4
NACTEL=5 0 0
INACTIVE=17
RAS2=5
ITERATIONS=200,100
CIROOT=2 2 1
THRS=0.000000010000 0.000100000000 0.000100000000

&CASPT2
SHIFT=0.0
IMAGINARY= 0.100
IPEASHIFT= 0.25
MAXITER=120
MULTISTATE= 1 1
OUTPUT=BRIEF
PRWF=0.1

>>> COPY MOLCAS.JobMix MOLCAS.4.JobIph

>>> COPY MOLCAS.1.JobIph JOB001

&RASSI
NROFJOBIPHS
1 3
1 2 3
MEIN
EJOB
TRD1

>>> COPY MOLCAS.rassi.h5 MOLCAS.rassi.1.h5

>>> COPY MOLCAS.2.JobIph JOB001

&RASSI
NROFJOBIPHS
1 1
1
MEIN
EJOB
TRD1

>>> COPY MOLCAS.rassi.h5 MOLCAS.rassi.2.h5

>>> COPY MOLCAS.3.JobIph JOB001

&RASSI
NROFJOBIPHS
1 2
1 2
MEIN
EJOB
TRD1

>>> COPY MOLCAS.rassi.h5 MOLCAS.rassi.3.h5

>>> COPY MOLCAS.4.JobIph JOB001

&RASSI
NROFJOBIPHS
1 1
1
MEIN
EJOB
TRD1

>>> COPY MOLCAS.rassi.h5 MOLCAS.rassi.4.h5

>>> COPY MOLCAS.1.JobIph JOB001

>>> COPY MOLCAS.2.JobIph JOB002

>>> COPY MOLCAS.3.JobIph JOB003

>>> COPY MOLCAS.4.JobIph JOB004

&RASSI
NROFJOBIPHS
4 3 1 2 1
1 2 3
1
1 2
1
MEIN
EJOB
SPINORBIT
SOCOUPLING=0.0d0
EJOB

>>> COPY MOLCAS.rassi.h5 MOLCAS.rassi.h5.bak

>>> COPY MOLCAS.1.JobIph JOB001

>>> COPY MOLCAS.3.JobIph JOB002

&RASSI
NROFJOBIPHS
2 3 2
1 2 3
1 2
MEIN
EJOB
TRD1

>>> COPY MOLCAS.rassi.h5 MOLCAS.rassi.trd1.h5

>>> COPY MOLCAS.rassi.h5.bak MOLCAS.rassi.h5

>>> COPY MOLCAS.2.JobIph JOB001

>>> COPY MOLCAS.4.JobIph JOB002

&RASSI
NROFJOBIPHS
2 1 1
1
1
MEIN
EJOB
TRD1

>>> COPY MOLCAS.rassi.h5 MOLCAS.rassi.trd2.h5

>>> COPY MOLCAS.rassi.h5.bak MOLCAS.rassi.h5

>>> COPY MOLCAS.rassi.h5.bak MOLCAS.rassi.h5

-- ----------------------------------

--- Start Module: gateway at Tue May 28 12:42:40 2024 ---
 
()()()()()()()()()()()()()()()()()()()()()()()()()()()()()()()()()()()()()()()()()()()()()()()()()()

                                              &GATEWAY

                                   only a single process is used
                       available to each process: 2.0 GB of memory, 1 thread?
                                            pid: 2734983
()()()()()()()()()()()()()()()()()()()()()()()()()()()()()()()()()()()()()()()()()()()()()()()()()()
 
 
++    Symmetry information:
      ---------------------
 
                    Character Table for C1 
 
                             E  
                    a        1  x, y, xy, Rz, z, xz, Ry, yz, Rx, I
--
 
 
++    Basis set information:
      ----------------------
 
 
      Basis set label: C.CC-PVQZ.........
 
      Electronic valence basis set:
      ------------------
      Associated Effective Charge   6.000000 au
      Associated Actual Charge      6.000000 au
      Nuclear Model: Point charge
 
      Shell  nPrim  nBasis  Cartesian Spherical Contaminant
         s      12       5        X                  
         p       6       4        X                  
         d       3       3                 X         
         f       2       2                 X         
         g       1       1                 X         
 
 
      Basis set label: S.CC-PVQZ.........
 
      Electronic valence basis set:
      ------------------
      Associated Effective Charge  16.000000 au
      Associated Actual Charge     16.000000 au
      Nuclear Model: Point charge
 
      Shell  nPrim  nBasis  Cartesian Spherical Contaminant
         s      16       6        X                  
         p      11       5        X                  
         d       3       3                 X         
         f       2       2                 X         
         g       1       1                 X         
 
 
      Basis set label: H.CC-PVQZ.........
 
      Electronic valence basis set:
      ------------------
      Associated Effective Charge   1.000000 au
      Associated Actual Charge      1.000000 au
      Nuclear Model: Point charge
 
      Shell  nPrim  nBasis  Cartesian Spherical Contaminant
         s       6       4        X                  
         p       3       3        X                  
         d       2       2                 X         
         f       1       1                 X         
--
 
 
++    Molecular structure info:
      -------------------------
 
                    ************************************************ 
                    **** Cartesian Coordinates / Bohr, Angstrom **** 
                    ************************************************ 
 
     Center  Label                x              y              z                     x              y              z
        1      C1               0.000000      -2.426068       2.171522              0.000000      -1.283820       1.149120
        2      C2               0.000000       0.000000       0.702562              0.000000       0.000000       0.371780
        3      C3               0.000000       2.426068       2.171522              0.000000       1.283820       1.149120
        4      S4               0.000000       0.000000      -2.363121              0.000000       0.000000      -1.250510
        5      H5               0.000000      -2.111920       4.195551              0.000000      -1.117580       2.220190
        6      H6               1.646859      -3.540100       1.665850              0.871480      -1.873340       0.881530
        7      H7              -1.646859      -3.540100       1.665850             -0.871480      -1.873340       0.881530
        8      H8               0.000000       2.111920       4.195551              0.000000       1.117580       2.220190
        9      H9              -1.646859       3.540100       1.665850             -0.871480       1.873340       0.881530
       10      H10              1.646859       3.540100       1.665850              0.871480       1.873340       0.881530
 
                    *************************************** 
                    *    InterNuclear Distances / Bohr    * 
                    *************************************** 
 
               1 C1            2 C2            3 C3            4 S4            5 H5            6 H6    
    1 C1       0.000000
    2 C2       2.836133        0.000000
    3 C3       4.852136        2.836133        0.000000
    4 S4       5.142840        3.065684        5.142840        0.000000
    5 H5       2.048263        4.081810        4.968906        6.890311        0.000000
    6 H6       2.051564        4.021489        6.209912        5.610442        3.339345        0.000000
    7 H7       2.051564        4.021489        6.209912        5.610442        3.339345        3.293717
    8 H8       4.968906        4.081810        2.048263        6.890311        4.223840        6.407562
    9 H9       6.209912        4.021489        2.051564        5.610442        6.407562        7.808828
   10 H10      6.209912        4.021489        2.051564        5.610442        6.407562        7.080199
 
               7 H7            8 H8            9 H9           10 H10   
    7 H7       0.000000
    8 H8       6.407562        0.000000
    9 H9       7.080199        3.339345        0.000000
   10 H10      7.808828        3.339345        3.293717        0.000000
 
                    ******************************************* 
                    *    InterNuclear Distances / Angstrom    * 
                    ******************************************* 
 
               1 C1            2 C2            3 C3            4 S4            5 H5            6 H6    
    1 C1       0.000000
    2 C2       1.500817        0.000000
    3 C3       2.567640        1.500817        0.000000
    4 S4       2.721473        1.622290        2.721473        0.000000
    5 H5       1.083894        2.160001        2.629432        3.646196        0.000000
    6 H6       1.085641        2.128080        3.286144        2.968918        1.767105        0.000000
    7 H7       1.085641        2.128080        3.286144        2.968918        1.767105        1.742960
    8 H8       2.629432        2.160001        1.083894        3.646196        2.235160        3.390736
    9 H9       3.286144        2.128080        1.085641        2.968918        3.390736        4.132254
   10 H10      3.286144        2.128080        1.085641        2.968918        3.390736        3.746680
 
               7 H7            8 H8            9 H9           10 H10   
    7 H7       0.000000
    8 H8       3.390736        0.000000
    9 H9       3.746680        1.767105        0.000000
   10 H10      4.132254        1.767105        1.742960        0.000000
 
                    ************************************** 
                    *    Valence Bond Angles / Degree    * 
                    ************************************** 
                          Atom centers                 Phi
                      2 C2       1 C1       5 H5       112.37
                      2 C2       1 C1       6 H6       109.68
                      2 C2       1 C1       7 H7       109.68
                      5 H5       1 C1       6 H6       109.08
                      5 H5       1 C1       7 H7       109.08
                      6 H6       1 C1       7 H7       106.78
                      1 C1       2 C2       3 C3       117.61
                      2 C2       3 C3       8 H8       112.37
                      2 C2       3 C3       9 H9       109.68
                      2 C2       3 C3      10 H10      109.68
                      8 H8       3 C3       9 H9       109.08
                      8 H8       3 C3      10 H10      109.08
                      9 H9       3 C3      10 H10      106.78
 
           ***************************************************************
           *              Valence Dihedral Angles / Degree               *
           ***************************************************************
                    Atom centers                       Phi1     Phi2     Theta 
           3 C3       2 C2       1 C1       5 H5        117.61   112.37     0.00
           3 C3       2 C2       1 C1       6 H6        117.61   109.68  -121.51
           3 C3       2 C2       1 C1       7 H7        117.61   109.68   121.51
           1 C1       2 C2       3 C3       8 H8        117.61   112.37     0.00
           1 C1       2 C2       3 C3       9 H9        117.61   109.68  -121.51
           1 C1       2 C2       3 C3      10 H10       117.61   109.68   121.51
--
 
 
            Nuclear Potential Energy            153.45474550 au
 
--- Stop Module: gateway at Tue May 28 12:42:42 2024 /rc=_RC_ALL_IS_WELL_ ---
--- Module gateway spent 1 second ---

--- Start Module: seward at Tue May 28 12:42:42 2024 ---
 
()()()()()()()()()()()()()()()()()()()()()()()()()()()()()()()()()()()()()()()()()()()()()()()()()()

                                              &SEWARD

                                   only a single process is used
                       available to each process: 2.0 GB of memory, 1 thread?
                                            pid: 2734986
()()()()()()()()()()()()()()()()()()()()()()()()()()()()()()()()()()()()()()()()()()()()()()()()()()
 
               SEWARD will generate:
                  Multipole Moment integrals up to order  2
                  Kinetic Energy integrals
                  Nuclear Attraction integrals (point charge)
                  One-Electron Hamiltonian integrals
                  Velocity integrals
                  Orbital angular momentum around ( 0.0000  0.0000  0.0000 )
                  Velocity quadrupole around ( 0.0000  0.0000  0.0022 )
                  Atomic mean-field integrals
                  RI decomposed two-electron repulsion integrals stored Cholesky style
                   - acCD auxiliary basis
                   - CD Threshold:   0.10E-03
 
                   Integrals are discarded if absolute value <: 0.10E-13
                   Integral cutoff threshold is set to       <: 0.10E-15
 
            Nuclear Potential Energy            153.45474550 au
 
 
      Basis set specifications :
      Symmetry species         a  
      Basis functions          404
 
 
      Input file to MOLDEN was generated!
 
--- Stop Module: seward at Tue May 28 12:44:06 2024 /rc=_RC_ALL_IS_WELL_ ---
--- Module seward spent 1 minute 24 seconds ---

*** symbolic link created: INPORB -> MOLCAS.GssOrb
--- Start Module: rasscf at Tue May 28 12:44:07 2024 ---
 
()()()()()()()()()()()()()()()()()()()()()()()()()()()()()()()()()()()()()()()()()()()()()()()()()()

                                              &RASSCF

                                   only a single process is used
                       available to each process: 2.0 GB of memory, 1 thread?
                                            pid: 2735385
()()()()()()()()()()()()()()()()()()()()()()()()()()()()()()()()()()()()()()()()()()()()()()()()()()
 
 
      Header of the ONEINT file:
      --------------------------
      
      Integrals generated by Gateway/Seward, Tue May 28 12:42:42 2024
 
 
      OrdInt status: non-squared
 
 
      Cartesian coordinates in Angstrom:
      -----------------------------------------------------
      No.  Label        X            Y            Z        
      -----------------------------------------------------
       1   C1         0.00000000  -1.28382000   1.14912000
       2   C2         0.00000000   0.00000000   0.37178000
       3   C3         0.00000000   1.28382000   1.14912000
       4   S4         0.00000000   0.00000000  -1.25051000
       5   H5         0.00000000  -1.11758000   2.22019000
       6   H6         0.87148000  -1.87334000   0.88153000
       7   H7        -0.87148000  -1.87334000   0.88153000
       8   H8         0.00000000   1.11758000   2.22019000
       9   H9        -0.87148000   1.87334000   0.88153000
      10   H10        0.87148000   1.87334000   0.88153000
      -----------------------------------------------------
      Nuclear repulsion energy =  153.45474550
 
++    Wave function specifications:
      -----------------------------
 
      Number of closed shell electrons          34
      Number of electrons in active shells       6
      Max number of holes in RAS1 space          0
      Max nr of electrons in RAS3 space          0
      Number of inactive orbitals               17
      Number of active orbitals                  5
      Number of secondary orbitals             382
      Spin quantum number                      0.0
      State symmetry                             1
--
 
++    Orbital specifications:
      -----------------------
 
      Symmetry species                           1
                                                 a
      Frozen orbitals                            0
      Inactive orbitals                         17
      Active orbitals                            5
      RAS1 orbitals                              0
      RAS2 orbitals                              5
      RAS3 orbitals                              0
      Secondary orbitals                       382
      Deleted orbitals                           0
      Number of basis functions                404
--
 
++    CI expansion specifications:
      ----------------------------
 
      Number of CSFs                            50
      Number of determinants                    55
      Number of root(s) required                 5
      Root chosen for geometry opt.              5
      CI roots used                              1     2     3     4     5
      weights                                0.200 0.200 0.200 0.200 0.200
      highest root included in the CI            5
      max. size of the explicit Hamiltonian     50
--
 
++    Optimization specifications:
      ----------------------------
 
      RASSCF algorithm: LK RI/DF
      Maximum number of macro iterations       200
      Maximum number of SX iterations          100
      Threshold for RASSCF energy            0.100E-07
      Threshold for max MO rotation          0.100E-03
      Threshold for max BLB element          0.100E-03
      Level shift parameter                  0.500E+00
      Make Quasi-Newton update
--
 
      Orbitals from runfile: guessorb orbitals
      The MO-coefficients are taken from guessorb on runfile
 
      Total molecular charge    0.00
 
      ************************************************************************************************************************
      *                                                                                                                      *
      *                                            Wave function control section                                             *
      *                                                                                                                      *
      ************************************************************************************************************************
 
 
                                         RASSCF iterations: Energy and convergence statistics
                                         ----------------------------------------------------
 
      Iter CI   SX   CI       RASSCF       Energy    max ROT     max BLB   max BLB  Level Ln srch  Step   QN   Walltime
          iter iter root      energy       change     param      element    value   shift minimum  type update hh:mm:ss
 Nr of preliminary CI iterations:   1
        1   1  100    0  -514.13909852    0.00E+00   0.41E+00*  10  30 1 -0.23E+00*  0.25   0.00    SX    NO    0:00:49
        2   1  100    0  -514.45933214   -0.32E+00* -0.16E+00*   9  27 1  0.51E-01*  0.27   0.00    SX    NO    0:00:29
        3   1   23    0  -514.50435019   -0.45E-01* -0.68E-01*  13  23 1 -0.27E-01*  0.25   0.00    SX    NO    0:00:30
        4   1   14    0  -514.51412251   -0.98E-02* -0.31E-01*  17  24 1 -0.13E-01*  0.25   0.00    SX    NO    0:00:29
        5   1   12    0  -514.51634666   -0.22E-02* -0.26E-01*  17  24 1 -0.74E-02*  0.24   1.94    LS   YES    0:00:32
        6   1   11    0  -514.51706631   -0.72E-03* -0.72E-02*  15  24 1  0.31E-02*  0.24   1.19    QN   YES    0:00:31
        7   1   11    0  -514.51716968   -0.10E-03*  0.35E-02*  11  22 1  0.12E-02*  0.24   1.31    QN   YES    0:00:33
        8   1   10    0  -514.51719261   -0.23E-04*  0.21E-02*  10  30 1  0.40E-03*  0.24   1.31    QN   YES    0:00:30
        9   1    9    0  -514.51719594   -0.33E-05*  0.11E-02*  13  23 1  0.27E-03*  0.24   1.29    QN   YES    0:00:31
       10   1    8    0  -514.51719676   -0.83E-06*  0.47E-03*  11  22 1 -0.11E-03*  0.24   1.38    QN   YES    0:00:31
       11   1    7    0  -514.51719695   -0.19E-06*  0.15E-03*  10  30 1 -0.45E-04   0.24   1.32    QN   YES    0:00:31
       12   1    6    0  -514.51719697   -0.25E-07*  0.69E-04   13  23 1 -0.19E-04   0.24   1.25    QN   YES    0:00:31
       13   1    6    0  -514.51719698   -0.44E-08  -0.55E-04   11  22 1  0.86E-05   0.24   1.40    QN   YES    0:00:34
      Convergence after 13 iterations
       14   1    6    0  -514.51719698   -0.15E-08  -0.55E-04   10  30 1  0.39E-05   0.24   1.40    QN   YES    0:00:35
 
      ************************************************************************************************************************
                                                      Wave function printout:
                       occupation of active orbitals, and spin coupling of open shells (u,d: Spin up or down)
      ************************************************************************************************************************
 
      Note: transformation to natural orbitals
      has been made, which may change the order of the CSFs.
 
      printout of CI-coefficients larger than  0.05 for root  1
      energy=    -514.710366
      conf/sym  11111     Coeff  Weight
             1  22200  -0.90075 0.81135
             7  2u2d0  -0.39461 0.15572
            17  u220d   0.07980 0.00637
            23  20220   0.10612 0.01126
            30  ud2ud  -0.05020 0.00252
            38  02202   0.06163 0.00380
            41  uu2dd  -0.06679 0.00446
 
      printout of CI-coefficients larger than  0.05 for root  2
      energy=    -514.613865
      conf/sym  11111     Coeff  Weight
             2  22ud0  -0.99179 0.98365
             8  2ud20   0.05801 0.00337
            39  02ud2   0.07917 0.00627
            42  uud2d  -0.05987 0.00358
 
      printout of CI-coefficients larger than  0.05 for root  3
      energy=    -514.468019
      conf/sym  11111     Coeff  Weight
             1  22200  -0.36671 0.13448
             3  22020  -0.09665 0.00934
             7  2u2d0   0.88653 0.78593
            17  u220d   0.23233 0.05398
            44  u022d   0.09625 0.00926
 
      printout of CI-coefficients larger than  0.05 for root  4
      energy=    -514.422157
      conf/sym  11111     Coeff  Weight
            15  u22d0   0.99134 0.98276
            29  ud220   0.08689 0.00755
            47  0u22d   0.07452 0.00555
 
      printout of CI-coefficients larger than  0.05 for root  5
      energy=    -514.371578
      conf/sym  11111     Coeff  Weight
             3  22020   0.95851 0.91875
             7  2u2d0   0.09441 0.00891
            20  u202d   0.18127 0.03286
            23  20220  -0.16653 0.02773
            35  02220  -0.06387 0.00408
            40  02022  -0.05243 0.00275
 
      Natural orbitals and occupation numbers for root  1
      sym 1:   1.975113   1.921828   1.998418   0.079264   0.025377
 
      Natural orbitals and occupation numbers for root  2
      sym 1:   1.981257   1.993772   1.000000   1.004905   0.020066
 
      Natural orbitals and occupation numbers for root  3
      sym 1:   1.941769   1.483491   1.979193   0.536728   0.058819
 
      Natural orbitals and occupation numbers for root  4
      sym 1:   0.996207   1.991152   1.998223   1.004061   0.010357
 
      Natural orbitals and occupation numbers for root  5
      sym 1:   1.978396   1.920724   0.088888   1.996021   0.015971
 
      ************************************************************************************************************************
      *                                                                                                                      *
      *                                                    Final results                                                     *
      *                                                                                                                      *
      ************************************************************************************************************************
 
 
++    Wave function specifications:
      -----------------------------
 
      Number of closed shell electrons          34
      Number of electrons in active shells       6
      Max number of holes in RAS1 space          0
      Max nr of electrons in RAS3 space          0
      Number of inactive orbitals               17
      Number of active orbitals                  5
      Number of secondary orbitals             382
      Spin quantum number                      0.0
      State symmetry                             1
--
 
++    Orbital specifications:
      -----------------------
 
      Symmetry species                           1
                                                 a
      Frozen orbitals                            0
      Inactive orbitals                         17
      Active orbitals                            5
      RAS1 orbitals                              0
      RAS2 orbitals                              5
      RAS3 orbitals                              0
      Secondary orbitals                       382
      Deleted orbitals                           0
      Number of basis functions                404
--
 
++    CI expansion specifications:
      ----------------------------
 
      Number of CSFs                            50
      Number of determinants                    55
      Number of root(s) required                 5
      CI roots used                              1     2     3     4     5
      weights                                0.200 0.200 0.200 0.200 0.200
      highest root included in the CI            5
      Root passed to geometry opt.               5
--
 
++    Final optimization conditions:
      ------------------------------
 
      Average CI energy                            -514.51719698
      RASSCF energy for state  5                   -514.37157806
      Super-CI energy                                -0.00000000
      RASSCF energy change                           -0.00000000
      Max change in MO coefficients              -0.648E-04
      Max non-diagonal density matrix element    -0.546E-04
      Maximum BLB matrix element                  0.389E-05
      (orbital pair  10,  30 in symmetry   1)
      Norm of electronic gradient            0.267E+00
--
 
 
      Final state energy(ies):
      ------------------------
 
::    RASSCF root number  1 Total energy:   -514.71036610
::    RASSCF root number  2 Total energy:   -514.61386477
::    RASSCF root number  3 Total energy:   -514.46801865
::    RASSCF root number  4 Total energy:   -514.42215732
::    RASSCF root number  5 Total energy:   -514.37157806
 
++    Molecular orbitals:
      -------------------
 
      Pseudonatural active orbitals and approximate occupation numbers
 
 
      MOLECULAR ORBITALS FOR SYMMETRY SPECIES 1: a  
 
      INDEX  ENERGY  OCCUPATION COEFFICIENTS ...
          1  -91.9689    2.0000                                                                                                           
               166 S4     1s     ( 1.0000)
          2  -11.2606    2.0000                                                                                                           
                56 C2     1s     (-1.0003)
          3  -11.2355    2.0000                                                                                                           
                 1 C1     1s     (-0.7076) 111 C3     1s     ( 0.7076)
          4  -11.2355    2.0000                                                                                                           
                 1 C1     1s     ( 0.7074) 111 C3     1s     ( 0.7074)
          5   -8.9724    2.0000                                                                                                           
               167 S4     2s     ( 1.0005)
          6   -6.6531    2.0000                                                                                                           
               182 S4     2pz    ( 1.0028)
          7   -6.6519    2.0000                                                                                                           
               177 S4     2py    ( 1.0010)
          8   -6.6510    2.0000                                                                                                           
               172 S4     2px    ( 0.9968)
          9   -1.1047    2.0000                                                                                                           
                 2 C1     2s     ( 0.3749)  57 C2     2s     ( 0.5848)  60 C2     *s     (-0.1047) 112 C3     2s     ( 0.3749)
               168 S4     3s     ( 0.4273) 225 H5     1s     ( 0.1230) 255 H6     1s     ( 0.1334) 285 H7     1s     ( 0.1334)
               315 H8     1s     ( 0.1230) 345 H9     1s     ( 0.1334) 375 H10    1s     ( 0.1334)
         10   -0.9593    2.0000                                                                                                           
                 2 C1     2s     (-0.5662)  65 C2     2py    ( 0.2486) 112 C3     2s     ( 0.5662) 225 H5     1s     (-0.2461)
               255 H6     1s     (-0.2704) 285 H7     1s     (-0.2704) 315 H8     1s     ( 0.2461) 345 H9     1s     ( 0.2704)
               375 H10    1s     ( 0.2704)
         11   -0.9407    2.0000                                                                                                           
                 2 C1     2s     ( 0.3567)  69 C2     2pz    ( 0.2306) 112 C3     2s     ( 0.3567) 168 S4     3s     (-0.7316)
               225 H5     1s     ( 0.2239) 255 H6     1s     ( 0.1562) 285 H7     1s     ( 0.1562) 315 H8     1s     ( 0.2239)
               345 H9     1s     ( 0.1562) 375 H10    1s     ( 0.1562)
         12   -0.7067    2.0000                                                                                                           
                 2 C1     2s     ( 0.1659)  10 C1     2py    (-0.3385)  14 C1     2pz    ( 0.1350)  57 C2     2s     (-0.5373)
                69 C2     2pz    (-0.2131) 112 C3     2s     ( 0.1659) 120 C3     2py    ( 0.3385) 124 C3     2pz    ( 0.1350)
               168 S4     3s     ( 0.3905) 183 S4     3pz    (-0.1073) 225 H5     1s     ( 0.1823) 255 H6     1s     ( 0.2394)
               285 H7     1s     ( 0.2394) 315 H8     1s     ( 0.1823) 345 H9     1s     ( 0.2394) 375 H10    1s     ( 0.2394)
      
         13   -0.6035    2.0000                                                                                                           
                10 C1     2py    ( 0.2114)  14 C1     2pz    ( 0.4035) 120 C3     2py    (-0.2114) 124 C3     2pz    ( 0.4035)
               168 S4     3s     ( 0.2058) 225 H5     1s     ( 0.4761) 255 H6     1s     (-0.2442) 285 H7     1s     (-0.2442)
               315 H8     1s     ( 0.4761) 345 H9     1s     (-0.2442) 375 H10    1s     (-0.2442)
         14   -0.5988    2.0000                                                                                                           
                 6 C1     2px    ( 0.4570)  61 C2     2px    ( 0.2008) 116 C3     2px    ( 0.4570) 255 H6     1s     ( 0.4009)
               285 H7     1s     (-0.4009) 345 H9     1s     (-0.4009) 375 H10    1s     ( 0.4009)
         15   -0.5937    2.0000                                                                                                           
                14 C1     2pz    (-0.4406)  65 C2     2py    (-0.4325) 124 C3     2pz    ( 0.4406) 178 S4     3py    (-0.1862)
               225 H5     1s     (-0.4650) 315 H8     1s     ( 0.4650)
         16   -0.5591    2.0000                                                                                                           
                 6 C1     2px    (-0.4798) 116 C3     2px    ( 0.4798) 255 H6     1s     (-0.4356) 285 H7     1s     ( 0.4356)
               345 H9     1s     (-0.4356) 375 H10    1s     ( 0.4356)
         17   -0.5110    2.0000                                                                                                           
                10 C1     2py    (-0.4655)  14 C1     2pz    (-0.1473)  65 C2     2py    ( 0.4248) 120 C3     2py    (-0.4655)
               124 C3     2pz    ( 0.1473) 178 S4     3py    ( 0.1516) 225 H5     1s     (-0.2881) 255 H6     1s     ( 0.3069)
               285 H7     1s     ( 0.3069) 315 H8     1s     ( 0.2881) 345 H9     1s     (-0.3069) 375 H10    1s     (-0.3069)
      
         18   -0.4860    1.7661                                                                                                           
                10 C1     2py    (-0.1224)  14 C1     2pz    ( 0.1441)  57 C2     2s     ( 0.1766)  69 C2     2pz    (-0.5753)
                72 C2     *pz    ( 0.1069) 120 C3     2py    ( 0.1224) 124 C3     2pz    ( 0.1441) 168 S4     3s     (-0.1965)
               171 S4     *s     (-0.1400) 183 S4     3pz    ( 0.7395) 225 H5     1s     ( 0.1452) 315 H8     1s     ( 0.1452)
      
         19   -0.0000    1.7811                                                                                                           
                 6 C1     2px    (-0.1020)  61 C2     2px    ( 0.2854) 116 C3     2px    (-0.1020) 173 S4     3px    ( 0.8862)
               255 H6     1s     (-0.1088) 285 H7     1s     ( 0.1088) 345 H9     1s     ( 0.1088) 375 H10    1s     (-0.1088)
      
         20   -0.0000    1.4129                                                                                                           
                 2 C1     2s     ( 0.1144)  10 C1     2py    ( 0.1475)  14 C1     2pz    (-0.1311)  65 C2     2py    (-0.1725)
               112 C3     2s     (-0.1144) 120 C3     2py    ( 0.1475) 124 C3     2pz    ( 0.1311) 178 S4     3py    ( 0.9492)
      
         21   -0.0000    1.0052                                                                                                           
                61 C2     2px    (-0.8266)  64 C2     *px    (-0.2286) 173 S4     3px    ( 0.4427) 176 S4     *px    ( 0.2092)
               255 H6     1s     ( 0.1858) 285 H7     1s     (-0.1858) 345 H9     1s     (-0.1858) 375 H10    1s     ( 0.1858)
      
         22   -0.0000    0.0346                                                                                                           
                57 C2     2s     (-0.5259)  59 C2     *s     (-0.1632)  60 C2     *s     (-0.1718)  69 C2     2pz    ( 0.9279)
                72 C2     *pz    (-0.2650) 168 S4     3s     ( 0.2781) 170 S4     *s     ( 0.1062) 171 S4     *s     ( 0.2818)
               183 S4     3pz    ( 1.0771) 186 S4     *pz    (-0.1413)
         23    0.1090    0.0000                                                                                                           
                 2 C1     2s     (-0.2064)   3 C1     *s     ( 0.1774)   4 C1     *s     (-1.3339)   5 C1     *s     (-5.0334)
                12 C1     *py    ( 0.3239)  26 C1     *d0    ( 0.1009)  58 C2     *s     (-0.1143)  59 C2     *s     ( 0.4013)
                60 C2     *s     ( 3.1890)  71 C2     *pz    (-0.1274)  72 C2     *pz    ( 0.6674)  81 C2     *d0    ( 0.2476)
               112 C3     2s     (-0.2064) 113 C3     *s     ( 0.1774) 114 C3     *s     (-1.3339) 115 C3     *s     (-5.0334)
               122 C3     *py    (-0.3239) 136 C3     *d0    ( 0.1009) 170 S4     *s     (-0.2768) 171 S4     *s     (-0.6315)
               183 S4     3pz    ( 0.1082) 185 S4     *pz    (-0.4317) 186 S4     *pz    (-0.4851) 193 S4     *d0    (-0.2450)
               227 H5     *s     ( 0.6750) 228 H5     *s     ( 1.2520) 234 H5     *py    (-0.1071) 237 H5     *pz    (-0.3401)
               257 H6     *s     ( 1.0301) 258 H6     *s     ( 1.1764) 261 H6     *px    (-0.3586) 264 H6     *py    ( 0.2351)
               267 H6     *pz    ( 0.1130) 287 H7     *s     ( 1.0301) 288 H7     *s     ( 1.1764) 291 H7     *px    ( 0.3586)
               294 H7     *py    ( 0.2351) 297 H7     *pz    ( 0.1130) 317 H8     *s     ( 0.6750) 318 H8     *s     ( 1.2520)
               324 H8     *py    ( 0.1071) 327 H8     *pz    (-0.3401) 347 H9     *s     ( 1.0301) 348 H9     *s     ( 1.1764)
               351 H9     *px    ( 0.3586) 354 H9     *py    (-0.2351) 357 H9     *pz    ( 0.1130) 377 H10    *s     ( 1.0301)
               378 H10    *s     ( 1.1764) 381 H10    *px    (-0.3586) 384 H10    *py    (-0.2351) 387 H10    *pz    ( 0.1130)
      
         24    0.1478    0.0000                                                                                                           
                 2 C1     2s     (-0.1619)   3 C1     *s     ( 0.2213)   4 C1     *s     (-1.6021)   5 C1     *s     (-5.3466)
                10 C1     2py    ( 0.1297)  12 C1     *py    ( 0.3278)  13 C1     *py    ( 0.1346)  17 C1     *pz    ( 0.4193)
                67 C2     *py    (-0.5292)  68 C2     *py    (-0.5133)  78 C2     *d1-   (-0.2899) 112 C3     2s     ( 0.1619)
               113 C3     *s     (-0.2213) 114 C3     *s     ( 1.6021) 115 C3     *s     ( 5.3466) 120 C3     2py    ( 0.1297)
               122 C3     *py    ( 0.3278) 123 C3     *py    ( 0.1346) 127 C3     *pz    (-0.4193) 179 S4     *py    ( 0.1279)
               190 S4     *d1-   (-0.2183) 227 H5     *s     ( 0.8110) 228 H5     *s     ( 0.9765) 237 H5     *pz    (-0.3605)
               257 H6     *s     ( 1.1901) 258 H6     *s     ( 1.5515) 261 H6     *px    (-0.4517) 264 H6     *py    ( 0.3118)
               287 H7     *s     ( 1.1901) 288 H7     *s     ( 1.5515) 291 H7     *px    ( 0.4517) 294 H7     *py    ( 0.3118)
               317 H8     *s     (-0.8110) 318 H8     *s     (-0.9765) 327 H8     *pz    ( 0.3605) 347 H9     *s     (-1.1901)
               348 H9     *s     (-1.5515) 351 H9     *px    (-0.4517) 354 H9     *py    ( 0.3118) 377 H10    *s     (-1.1901)
               378 H10    *s     (-1.5515) 381 H10    *px    ( 0.4517) 384 H10    *py    ( 0.3118)
--
 
      Von Neumann Entropy (Root   1) =  0.33877
 

      Mulliken population analysis for root number:  1
      -----------------------------------------------
 
 
++    Molecular charges:
      ------------------
 
      Mulliken charges per centre and basis function type
      ---------------------------------------------------
 
                C1      C2      C3      S4      H5      H6      H7      H8      H9      H10   
      1s       2.0013  2.0009  2.0013  1.9999  1.4410  1.4229  1.4229  1.4410  1.4229  1.4229
      2s       1.5304  1.4954  1.5304  2.0011  0.0000  0.0000  0.0000  0.0000  0.0000  0.0000
      2px      1.2447  0.7889  1.2447  1.9936  0.0000  0.0000  0.0000  0.0000  0.0000  0.0000
      2pz      1.2000  1.1042  1.2000  2.0058  0.0000  0.0000  0.0000  0.0000  0.0000  0.0000
      2py      1.1490  1.1196  1.1490  2.0021  0.0000  0.0000  0.0000  0.0000  0.0000  0.0000
      3s       0.0000  0.0000  0.0000  1.9189  0.0000  0.0000  0.0000  0.0000  0.0000  0.0000
      3px      0.0000  0.0000  0.0000  1.2597  0.0000  0.0000  0.0000  0.0000  0.0000  0.0000
      3pz      0.0000  0.0000  0.0000  1.2120  0.0000  0.0000  0.0000  0.0000  0.0000  0.0000
      3py      0.0000  0.0000  0.0000  1.9194  0.0000  0.0000  0.0000  0.0000  0.0000  0.0000
      *s      -0.3242 -0.2734 -0.3242 -0.0768 -0.5586 -0.5548 -0.5548 -0.5586 -0.5548 -0.5548
      *px     -0.2198 -0.0243 -0.2198 -0.0612  0.0101  0.0126  0.0126  0.0101  0.0126  0.0126
      *pz     -0.2327 -0.1455 -0.2327 -0.2337  0.0158  0.0098  0.0098  0.0158  0.0098  0.0098
      *py     -0.2437 -0.1804 -0.2437  0.0411  0.0094  0.0105  0.0105  0.0094  0.0105  0.0105
      *d2+     0.0105  0.0110  0.0105  0.0005  0.0001  0.0011  0.0011  0.0001  0.0011  0.0011
      *d1+     0.0064  0.0290  0.0064  0.0306  0.0009  0.0007  0.0007  0.0009  0.0007  0.0007
      *d0      0.0340  0.0319  0.0340  0.0456  0.0011  0.0004  0.0004  0.0011  0.0004  0.0004
      *d1-     0.0161  0.0488  0.0161  0.0170  0.0014  0.0004  0.0004  0.0014  0.0004  0.0004
      *d2-     0.0250  0.0118  0.0250  0.0006  0.0001  0.0009  0.0009  0.0001  0.0009  0.0009
      *f3+     0.0002  0.0016  0.0002  0.0000  0.0000  0.0001  0.0001  0.0000  0.0001  0.0001
      *f2+     0.0009  0.0019  0.0009  0.0001  0.0000  0.0000  0.0000  0.0000  0.0000  0.0000
      *f1+    -0.0001  0.0043 -0.0001  0.0042  0.0001  0.0000  0.0000  0.0001  0.0000  0.0000
      *f0      0.0019  0.0029  0.0019  0.0042  0.0001  0.0000  0.0000  0.0001  0.0000  0.0000
      *f1-     0.0019  0.0076  0.0019  0.0022  0.0001  0.0000  0.0000  0.0001  0.0000  0.0000
      *f2-     0.0009  0.0008  0.0009  0.0002  0.0000  0.0000  0.0000  0.0000  0.0000  0.0000
      *f3-     0.0018  0.0017  0.0018  0.0000  0.0000  0.0000  0.0000  0.0000  0.0000  0.0000
      *g4+     0.0001  0.0000  0.0001  0.0000  0.0000  0.0000  0.0000  0.0000  0.0000  0.0000
      *g3+     0.0000  0.0001  0.0000  0.0000  0.0000  0.0000  0.0000  0.0000  0.0000  0.0000
      *g2+     0.0001  0.0001  0.0001  0.0000  0.0000  0.0000  0.0000  0.0000  0.0000  0.0000
      *g1+     0.0000  0.0002  0.0000  0.0004  0.0000  0.0000  0.0000  0.0000  0.0000  0.0000
      *g0      0.0001  0.0003  0.0001  0.0006  0.0000  0.0000  0.0000  0.0000  0.0000  0.0000
      *g1-     0.0001  0.0003  0.0001  0.0004  0.0000  0.0000  0.0000  0.0000  0.0000  0.0000
      *g2-     0.0000  0.0000  0.0000  0.0000  0.0000  0.0000  0.0000  0.0000  0.0000  0.0000
      *g3-     0.0001  0.0002  0.0001  0.0000  0.0000  0.0000  0.0000  0.0000  0.0000  0.0000
      *g4-     0.0001  0.0001  0.0001  0.0000  0.0000  0.0000  0.0000  0.0000  0.0000  0.0000
      Total    6.2052  6.0398  6.2052 16.0886  0.9214  0.9046  0.9046  0.9214  0.9046  0.9046
 
      N-E     -0.2052 -0.0398 -0.2052 -0.0886  0.0786  0.0954  0.0954  0.0786  0.0954  0.0954
 
      Total electronic charge=   40.000000
 
      Total            charge=   -0.000000
--
 
 

      Expectation values of various properties for root number:  1
      -----------------------------------------------------------
 
 
++    Molecular properties:
      ---------------------
 
      Charge (e):
                      =   -0.0000
      Dipole Moment (Debye):
      Origin of the operator (Ang)=    0.0000    0.0000    0.0000
                   X=  1.3980E-08               Y= -7.2186E-09               Z=  2.5279E+00           Total=  2.5279E+00
      Quadrupole Moment (Debye*Ang):
      Origin of the operator (Ang)=    0.0000    0.0000    0.0012
                  XX= -3.2101E+01              XY=  1.2011E-08              XZ=  3.8529E-09              YY= -3.3495E+01
                  YZ= -1.7971E-08              ZZ= -3.2415E+01
      In traceless form (Debye*Ang)
                  XX=  8.5425E-01              XY=  1.8016E-08              XZ=  5.7793E-09              YY= -1.2369E+00
                  YZ= -2.6957E-08              ZZ=  3.8262E-01
--
 
      Von Neumann Entropy (Root   2) =  1.08346
 

      Mulliken population analysis for root number:  2
      -----------------------------------------------
 
 
++    Molecular charges:
      ------------------
 
      Mulliken charges per centre and basis function type
      ---------------------------------------------------
 
                C1      C2      C3      S4      H5      H6      H7      H8      H9      H10   
      1s       2.0013  2.0009  2.0013  1.9999  1.4356  1.4287  1.4287  1.4356  1.4287  1.4287
      2s       1.5261  1.4894  1.5261  2.0011  0.0000  0.0000  0.0000  0.0000  0.0000  0.0000
      2px      1.2440  1.0159  1.2440  1.9936  0.0000  0.0000  0.0000  0.0000  0.0000  0.0000
      2pz      1.1905  1.0642  1.1905  2.0058  0.0000  0.0000  0.0000  0.0000  0.0000  0.0000
      2py      1.1276  1.1146  1.1276  2.0021  0.0000  0.0000  0.0000  0.0000  0.0000  0.0000
      3s       0.0000  0.0000  0.0000  1.9150  0.0000  0.0000  0.0000  0.0000  0.0000  0.0000
      3px      0.0000  0.0000  0.0000  1.8490  0.0000  0.0000  0.0000  0.0000  0.0000  0.0000
      3pz      0.0000  0.0000  0.0000  1.2828  0.0000  0.0000  0.0000  0.0000  0.0000  0.0000
      3py      0.0000  0.0000  0.0000  1.0517  0.0000  0.0000  0.0000  0.0000  0.0000  0.0000
      *s      -0.3231 -0.2758 -0.3231 -0.0812 -0.5593 -0.5516 -0.5516 -0.5593 -0.5516 -0.5516
      *px     -0.2172 -0.0087 -0.2172  0.0325  0.0101  0.0121  0.0121  0.0101  0.0121  0.0121
      *pz     -0.2332 -0.1466 -0.2332 -0.2379  0.0161  0.0097  0.0097  0.0161  0.0097  0.0097
      *py     -0.2412 -0.1752 -0.2412  0.0125  0.0092  0.0096  0.0096  0.0092  0.0096  0.0096
      *d2+     0.0106  0.0109  0.0106  0.0006  0.0001  0.0011  0.0011  0.0001  0.0011  0.0011
      *d1+     0.0071  0.0273  0.0071  0.0495  0.0009  0.0006  0.0006  0.0009  0.0006  0.0006
      *d0      0.0325  0.0325  0.0325  0.0404  0.0011  0.0004  0.0004  0.0011  0.0004  0.0004
      *d1-     0.0160  0.0300  0.0160  0.0188  0.0014  0.0004  0.0004  0.0014  0.0004  0.0004
      *d2-     0.0304  0.0118  0.0304  0.0006  0.0001  0.0009  0.0009  0.0001  0.0009  0.0009
      *f3+     0.0006  0.0015  0.0006  0.0001  0.0000  0.0001  0.0001  0.0000  0.0001  0.0001
      *f2+     0.0009  0.0019  0.0009  0.0001  0.0000  0.0000  0.0000  0.0000  0.0000  0.0000
      *f1+    -0.0001  0.0034 -0.0001  0.0042  0.0001  0.0000  0.0000  0.0001  0.0000  0.0000
      *f0      0.0018  0.0029  0.0018  0.0037  0.0001  0.0000  0.0000  0.0001  0.0000  0.0000
      *f1-     0.0018  0.0063  0.0018  0.0027  0.0001  0.0000  0.0000  0.0001  0.0000  0.0000
      *f2-     0.0012  0.0008  0.0012  0.0002  0.0000  0.0000  0.0000  0.0000  0.0000  0.0000
      *f3-     0.0018  0.0016  0.0018  0.0000  0.0000  0.0000  0.0000  0.0000  0.0000  0.0000
      *g4+     0.0001  0.0000  0.0001  0.0000  0.0000  0.0000  0.0000  0.0000  0.0000  0.0000
      *g3+     0.0001  0.0001  0.0001  0.0000  0.0000  0.0000  0.0000  0.0000  0.0000  0.0000
      *g2+     0.0001  0.0001  0.0001  0.0000  0.0000  0.0000  0.0000  0.0000  0.0000  0.0000
      *g1+     0.0000  0.0002  0.0000  0.0005  0.0000  0.0000  0.0000  0.0000  0.0000  0.0000
      *g0      0.0001  0.0002  0.0001  0.0005  0.0000  0.0000  0.0000  0.0000  0.0000  0.0000
      *g1-     0.0001  0.0003  0.0001  0.0004  0.0000  0.0000  0.0000  0.0000  0.0000  0.0000
      *g2-     0.0000  0.0000  0.0000  0.0000  0.0000  0.0000  0.0000  0.0000  0.0000  0.0000
      *g3-     0.0001  0.0002  0.0001  0.0000  0.0000  0.0000  0.0000  0.0000  0.0000  0.0000
      *g4-     0.0001  0.0001  0.0001  0.0000  0.0000  0.0000  0.0000  0.0000  0.0000  0.0000
      Total    6.1799  6.2110  6.1799 15.9494  0.9154  0.9123  0.9123  0.9154  0.9123  0.9123
 
      N-E     -0.1799 -0.2110 -0.1799  0.0506  0.0846  0.0877  0.0877  0.0846  0.0877  0.0877
 
      Total electronic charge=   40.000000
 
      Total            charge=   -0.000000
--
 
 

      Expectation values of various properties for root number:  2
      -----------------------------------------------------------
 
 
++    Molecular properties:
      ---------------------
 
      Charge (e):
                      =   -0.0000
      Dipole Moment (Debye):
      Origin of the operator (Ang)=    0.0000    0.0000    0.0000
                   X= -7.4586E-09               Y= -1.8390E-08               Z=  1.8967E+00           Total=  1.8967E+00
      Quadrupole Moment (Debye*Ang):
      Origin of the operator (Ang)=    0.0000    0.0000    0.0012
                  XX= -3.4923E+01              XY=  9.5491E-09              XZ=  2.1298E-08              YY= -3.1358E+01
                  YZ=  6.1207E-09              ZZ= -3.2985E+01
      In traceless form (Debye*Ang)
                  XX= -2.7517E+00              XY=  1.4324E-08              XZ=  3.1948E-08              YY=  2.5961E+00
                  YZ=  9.1810E-09              ZZ=  1.5561E-01
--
 
      Von Neumann Entropy (Root   3) =  1.03492
 

      Mulliken population analysis for root number:  3
      -----------------------------------------------
 
 
++    Molecular charges:
      ------------------
 
      Mulliken charges per centre and basis function type
      ---------------------------------------------------
 
                C1      C2      C3      S4      H5      H6      H7      H8      H9      H10   
      1s       2.0013  2.0009  2.0013  1.9999  1.4414  1.4136  1.4136  1.4414  1.4136  1.4136
      2s       1.5304  1.5065  1.5304  2.0011  0.0000  0.0000  0.0000  0.0000  0.0000  0.0000
      2px      1.2393  0.5865  1.2393  1.9936  0.0000  0.0000  0.0000  0.0000  0.0000  0.0000
      2pz      1.1999  1.1678  1.1999  2.0058  0.0000  0.0000  0.0000  0.0000  0.0000  0.0000
      2py      1.1486  1.1195  1.1486  2.0021  0.0000  0.0000  0.0000  0.0000  0.0000  0.0000
      3s       0.0000  0.0000  0.0000  1.9252  0.0000  0.0000  0.0000  0.0000  0.0000  0.0000
      3px      0.0000  0.0000  0.0000  1.4133  0.0000  0.0000  0.0000  0.0000  0.0000  0.0000
      3pz      0.0000  0.0000  0.0000  1.0928  0.0000  0.0000  0.0000  0.0000  0.0000  0.0000
      3py      0.0000  0.0000  0.0000  1.9027  0.0000  0.0000  0.0000  0.0000  0.0000  0.0000
      *s      -0.3242 -0.2690 -0.3242 -0.0701 -0.5591 -0.5482 -0.5482 -0.5591 -0.5482 -0.5482
      *px     -0.2161 -0.0520 -0.2161  0.0832  0.0099  0.0122  0.0122  0.0099  0.0122  0.0122
      *pz     -0.2325 -0.1419 -0.2325 -0.2243  0.0159  0.0094  0.0094  0.0159  0.0094  0.0094
      *py     -0.2438 -0.1803 -0.2438  0.0406  0.0094  0.0098  0.0098  0.0094  0.0098  0.0098
      *d2+     0.0106  0.0110  0.0106  0.0006  0.0001  0.0011  0.0011  0.0001  0.0011  0.0011
      *d1+     0.0063  0.0149  0.0063  0.0289  0.0009  0.0007  0.0007  0.0009  0.0007  0.0007
      *d0      0.0348  0.0304  0.0348  0.0579  0.0011  0.0004  0.0004  0.0011  0.0004  0.0004
      *d1-     0.0160  0.0485  0.0160  0.0171  0.0014  0.0004  0.0004  0.0014  0.0004  0.0004
      *d2-     0.0214  0.0118  0.0214  0.0006  0.0000  0.0008  0.0008  0.0000  0.0008  0.0008
      *f3+     0.0006  0.0017  0.0006  0.0001  0.0000  0.0001  0.0001  0.0000  0.0001  0.0001
      *f2+     0.0009  0.0018  0.0009  0.0002  0.0000  0.0000  0.0000  0.0000  0.0000  0.0000
      *f1+    -0.0001  0.0013 -0.0001  0.0018  0.0001  0.0000  0.0000  0.0001  0.0000  0.0000
      *f0      0.0019  0.0027  0.0019  0.0051  0.0001  0.0000  0.0000  0.0001  0.0000  0.0000
      *f1-     0.0020  0.0076  0.0020  0.0022  0.0001  0.0000  0.0000  0.0001  0.0000  0.0000
      *f2-     0.0005  0.0008  0.0005  0.0002  0.0000  0.0000  0.0000  0.0000  0.0000  0.0000
      *f3-     0.0018  0.0017  0.0018  0.0000  0.0000  0.0000  0.0000  0.0000  0.0000  0.0000
      *g4+     0.0001  0.0000  0.0001  0.0000  0.0000  0.0000  0.0000  0.0000  0.0000  0.0000
      *g3+     0.0000  0.0001  0.0000  0.0000  0.0000  0.0000  0.0000  0.0000  0.0000  0.0000
      *g2+     0.0001  0.0001  0.0001  0.0000  0.0000  0.0000  0.0000  0.0000  0.0000  0.0000
      *g1+     0.0000  0.0001  0.0000  0.0003  0.0000  0.0000  0.0000  0.0000  0.0000  0.0000
      *g0      0.0001  0.0003  0.0001  0.0007  0.0000  0.0000  0.0000  0.0000  0.0000  0.0000
      *g1-     0.0001  0.0003  0.0001  0.0004  0.0000  0.0000  0.0000  0.0000  0.0000  0.0000
      *g2-     0.0000  0.0000  0.0000  0.0000  0.0000  0.0000  0.0000  0.0000  0.0000  0.0000
      *g3-     0.0001  0.0002  0.0001  0.0000  0.0000  0.0000  0.0000  0.0000  0.0000  0.0000
      *g4-     0.0001  0.0001  0.0001  0.0000  0.0000  0.0000  0.0000  0.0000  0.0000  0.0000
      Total    6.2001  5.8735  6.2001 16.2819  0.9212  0.9005  0.9005  0.9212  0.9005  0.9005
 
      N-E     -0.2001  0.1265 -0.2001 -0.2819  0.0788  0.0995  0.0995  0.0788  0.0995  0.0995
 
      Total electronic charge=   40.000000
 
      Total            charge=   -0.000000
--
 
 

      Expectation values of various properties for root number:  3
      -----------------------------------------------------------
 
 
++    Molecular properties:
      ---------------------
 
      Charge (e):
                      =   -0.0000
      Dipole Moment (Debye):
      Origin of the operator (Ang)=    0.0000    0.0000    0.0000
                   X=  2.2042E-08               Y= -9.1850E-09               Z=  4.5299E+00           Total=  4.5299E+00
      Quadrupole Moment (Debye*Ang):
      Origin of the operator (Ang)=    0.0000    0.0000    0.0012
                  XX= -3.2903E+01              XY=  9.3255E-09              XZ= -6.3454E-08              YY= -3.2973E+01
                  YZ= -1.9890E-08              ZZ= -3.6327E+01
      In traceless form (Debye*Ang)
                  XX=  1.7473E+00              XY=  1.3988E-08              XZ= -9.5182E-08              YY=  1.6417E+00
                  YZ= -2.9835E-08              ZZ= -3.3890E+00
--
 
      Von Neumann Entropy (Root   4) =  1.04690
 

      Mulliken population analysis for root number:  4
      -----------------------------------------------
 
 
++    Molecular charges:
      ------------------
 
      Mulliken charges per centre and basis function type
      ---------------------------------------------------
 
                C1      C2      C3      S4      H5      H6      H7      H8      H9      H10   
      1s       2.0013  2.0009  2.0013  1.9999  1.4264  1.4317  1.4317  1.4264  1.4317  1.4317
      2s       1.5279  1.4669  1.5279  2.0011  0.0000  0.0000  0.0000  0.0000  0.0000  0.0000
      2px      1.2442  1.0993  1.2442  1.9936  0.0000  0.0000  0.0000  0.0000  0.0000  0.0000
      2pz      1.1844  0.7648  1.1844  2.0057  0.0000  0.0000  0.0000  0.0000  0.0000  0.0000
      2py      1.1335  1.1196  1.1335  2.0021  0.0000  0.0000  0.0000  0.0000  0.0000  0.0000
      3s       0.0000  0.0000  0.0000  1.8834  0.0000  0.0000  0.0000  0.0000  0.0000  0.0000
      3px      0.0000  0.0000  0.0000  1.7485  0.0000  0.0000  0.0000  0.0000  0.0000  0.0000
      3pz      0.0000  0.0000  0.0000  0.6784  0.0000  0.0000  0.0000  0.0000  0.0000  0.0000
      3py      0.0000  0.0000  0.0000  1.9192  0.0000  0.0000  0.0000  0.0000  0.0000  0.0000
      *s      -0.3236 -0.2767 -0.3236 -0.1114 -0.5535 -0.5501 -0.5501 -0.5535 -0.5501 -0.5501
      *px     -0.2176  0.0059 -0.2176  0.0132  0.0101  0.0121  0.0121  0.0101  0.0121  0.0121
      *pz     -0.2329 -0.1314 -0.2329 -0.1488  0.0151  0.0096  0.0096  0.0151  0.0096  0.0096
      *py     -0.2409 -0.1804 -0.2409  0.0411  0.0093  0.0097  0.0097  0.0093  0.0097  0.0097
      *d2+     0.0101  0.0095  0.0101  0.0005  0.0001  0.0011  0.0011  0.0001  0.0011  0.0011
      *d1+     0.0073  0.0278  0.0073  0.0534  0.0009  0.0006  0.0006  0.0009  0.0006  0.0006
      *d0      0.0285  0.0270  0.0285  0.0293  0.0011  0.0004  0.0004  0.0011  0.0004  0.0004
      *d1-     0.0164  0.0488  0.0164  0.0170  0.0013  0.0004  0.0004  0.0013  0.0004  0.0004
      *d2-     0.0322  0.0118  0.0322  0.0006  0.0001  0.0009  0.0009  0.0001  0.0009  0.0009
      *f3+     0.0006  0.0015  0.0006  0.0001  0.0000  0.0001  0.0001  0.0000  0.0001  0.0001
      *f2+     0.0010  0.0017  0.0010  0.0002  0.0000  0.0000  0.0000  0.0000  0.0000  0.0000
      *f1+    -0.0001  0.0037 -0.0001  0.0047  0.0001  0.0000  0.0000  0.0001  0.0000  0.0000
      *f0      0.0019  0.0029  0.0019  0.0027  0.0001  0.0000  0.0000  0.0001  0.0000  0.0000
      *f1-     0.0016  0.0076  0.0016  0.0022  0.0001  0.0000  0.0000  0.0001  0.0000  0.0000
      *f2-     0.0013  0.0008  0.0013  0.0002  0.0000  0.0000  0.0000  0.0000  0.0000  0.0000
      *f3-     0.0017  0.0017  0.0017  0.0000  0.0000  0.0000  0.0000  0.0000  0.0000  0.0000
      *g4+     0.0001  0.0000  0.0001  0.0000  0.0000  0.0000  0.0000  0.0000  0.0000  0.0000
      *g3+     0.0001  0.0001  0.0001  0.0000  0.0000  0.0000  0.0000  0.0000  0.0000  0.0000
      *g2+     0.0001  0.0001  0.0001  0.0000  0.0000  0.0000  0.0000  0.0000  0.0000  0.0000
      *g1+     0.0000  0.0002  0.0000  0.0006  0.0000  0.0000  0.0000  0.0000  0.0000  0.0000
      *g0      0.0001  0.0002  0.0001  0.0003  0.0000  0.0000  0.0000  0.0000  0.0000  0.0000
      *g1-     0.0001  0.0003  0.0001  0.0004  0.0000  0.0000  0.0000  0.0000  0.0000  0.0000
      *g2-     0.0000  0.0000  0.0000  0.0000  0.0000  0.0000  0.0000  0.0000  0.0000  0.0000
      *g3-     0.0001  0.0002  0.0001  0.0000  0.0000  0.0000  0.0000  0.0000  0.0000  0.0000
      *g4-     0.0001  0.0001  0.0001  0.0000  0.0000  0.0000  0.0000  0.0000  0.0000  0.0000
      Total    6.1793  6.0148  6.1793 16.1381  0.9111  0.9166  0.9166  0.9111  0.9166  0.9166
 
      N-E     -0.1793 -0.0148 -0.1793 -0.1381  0.0889  0.0834  0.0834  0.0889  0.0834  0.0834
 
      Total electronic charge=   40.000000
 
      Total            charge=   -0.000000
--
 
 

      Expectation values of various properties for root number:  4
      -----------------------------------------------------------
 
 
++    Molecular properties:
      ---------------------
 
      Charge (e):
                      =   -0.0000
      Dipole Moment (Debye):
      Origin of the operator (Ang)=    0.0000    0.0000    0.0000
                   X= -3.0503E-09               Y= -2.7285E-08               Z=  2.4231E+00           Total=  2.4231E+00
      Quadrupole Moment (Debye*Ang):
      Origin of the operator (Ang)=    0.0000    0.0000    0.0012
                  XX= -3.5120E+01              XY=  9.6037E-09              XZ=  4.1105E-08              YY= -3.4461E+01
                  YZ= -6.3810E-08              ZZ= -3.1281E+01
      In traceless form (Debye*Ang)
                  XX= -2.2492E+00              XY=  1.4406E-08              XZ=  6.1657E-08              YY= -1.2606E+00
                  YZ= -9.5715E-08              ZZ=  3.5097E+00
--
 
      Von Neumann Entropy (Root   5) =  0.32969
 

      Mulliken population analysis for root number:  5
      -----------------------------------------------
 
 
++    Molecular charges:
      ------------------
 
      Mulliken charges per centre and basis function type
      ---------------------------------------------------
 
                C1      C2      C3      S4      H5      H6      H7      H8      H9      H10   
      1s       2.0013  2.0009  2.0013  1.9999  1.4283  1.4467  1.4467  1.4283  1.4467  1.4467
      2s       1.5218  1.4687  1.5218  2.0011  0.0000  0.0000  0.0000  0.0000  0.0000  0.0000
      2px      1.2425  1.6138  1.2425  1.9936  0.0000  0.0000  0.0000  0.0000  0.0000  0.0000
      2pz      1.1801  0.9085  1.1801  2.0057  0.0000  0.0000  0.0000  0.0000  0.0000  0.0000
      2py      1.1063  1.1101  1.1063  2.0021  0.0000  0.0000  0.0000  0.0000  0.0000  0.0000
      3s       0.0000  0.0000  0.0000  1.8996  0.0000  0.0000  0.0000  0.0000  0.0000  0.0000
      3px      0.0000  0.0000  0.0000  1.9052  0.0000  0.0000  0.0000  0.0000  0.0000  0.0000
      3pz      0.0000  0.0000  0.0000  1.5351  0.0000  0.0000  0.0000  0.0000  0.0000  0.0000
      3py      0.0000  0.0000  0.0000  0.2599  0.0000  0.0000  0.0000  0.0000  0.0000  0.0000
      *s      -0.3220 -0.2839 -0.3220 -0.0985 -0.5587 -0.5492 -0.5492 -0.5587 -0.5492 -0.5492
      *px     -0.2158  0.0762 -0.2158  0.0605  0.0101  0.0115  0.0115  0.0101  0.0115  0.0115
      *pz     -0.2341 -0.1476 -0.2341 -0.2490  0.0162  0.0099  0.0099  0.0162  0.0099  0.0099
      *py     -0.2384 -0.1704 -0.2384 -0.0136  0.0090  0.0085  0.0085  0.0090  0.0085  0.0085
      *d2+     0.0105  0.0106  0.0105  0.0010  0.0001  0.0011  0.0011  0.0001  0.0011  0.0011
      *d1+     0.0088  0.0241  0.0088  0.0875  0.0009  0.0006  0.0006  0.0009  0.0006  0.0006
      *d0      0.0293  0.0341  0.0293  0.0261  0.0011  0.0004  0.0004  0.0011  0.0004  0.0004
      *d1-     0.0161  0.0128  0.0161  0.0204  0.0013  0.0004  0.0004  0.0013  0.0004  0.0004
      *d2-     0.0437  0.0118  0.0437  0.0006  0.0002  0.0009  0.0009  0.0002  0.0009  0.0009
      *f3+     0.0011  0.0013  0.0011  0.0001  0.0000  0.0001  0.0001  0.0000  0.0001  0.0001
      *f2+     0.0009  0.0019  0.0009  0.0001  0.0000  0.0000  0.0000  0.0000  0.0000  0.0000
      *f1+    -0.0001  0.0029 -0.0001  0.0063  0.0001  0.0000  0.0000  0.0001  0.0000  0.0000
      *f0      0.0017  0.0031  0.0017  0.0025  0.0001  0.0000  0.0000  0.0001  0.0000  0.0000
      *f1-     0.0016  0.0050  0.0016  0.0033  0.0001  0.0000  0.0000  0.0001  0.0000  0.0000
      *f2-     0.0020  0.0008  0.0020  0.0002  0.0000  0.0000  0.0000  0.0000  0.0000  0.0000
      *f3-     0.0017  0.0015  0.0017  0.0000  0.0000  0.0001  0.0001  0.0000  0.0001  0.0001
      *g4+     0.0001  0.0000  0.0001  0.0000  0.0000  0.0000  0.0000  0.0000  0.0000  0.0000
      *g3+     0.0001  0.0001  0.0001  0.0000  0.0000  0.0000  0.0000  0.0000  0.0000  0.0000
      *g2+     0.0001  0.0001  0.0001  0.0000  0.0000  0.0000  0.0000  0.0000  0.0000  0.0000
      *g1+     0.0000  0.0002  0.0000  0.0008  0.0000  0.0000  0.0000  0.0000  0.0000  0.0000
      *g0      0.0001  0.0002  0.0001  0.0003  0.0000  0.0000  0.0000  0.0000  0.0000  0.0000
      *g1-     0.0001  0.0003  0.0001  0.0004  0.0000  0.0000  0.0000  0.0000  0.0000  0.0000
      *g2-     0.0000  0.0000  0.0000  0.0000  0.0000  0.0000  0.0000  0.0000  0.0000  0.0000
      *g3-     0.0001  0.0001  0.0001  0.0000  0.0000  0.0000  0.0000  0.0000  0.0000  0.0000
      *g4-     0.0001  0.0001  0.0001  0.0000  0.0000  0.0000  0.0000  0.0000  0.0000  0.0000
      Total    6.1598  6.6874  6.1598 15.4512  0.9086  0.9311  0.9311  0.9086  0.9311  0.9311
 
      N-E     -0.1598 -0.6874 -0.1598  0.5488  0.0914  0.0689  0.0689  0.0914  0.0689  0.0689
 
      Total electronic charge=   40.000000
 
      Total            charge=   -0.000000
--
 
 

      Expectation values of various properties for root number:  5
      -----------------------------------------------------------
 
 
++    Molecular properties:
      ---------------------
 
      Charge (e):
                      =   -0.0000
      Dipole Moment (Debye):
      Origin of the operator (Ang)=    0.0000    0.0000    0.0000
                   X=  6.5504E-09               Y= -1.2259E-08               Z= -1.7166E+00           Total=  1.7166E+00
      Quadrupole Moment (Debye*Ang):
      Origin of the operator (Ang)=    0.0000    0.0000    0.0012
                  XX= -3.6927E+01              XY=  8.6210E-09              XZ=  4.5124E-08              YY= -3.0560E+01
                  YZ= -5.3002E-08              ZZ= -3.1042E+01
      In traceless form (Debye*Ang)
                  XX= -6.1261E+00              XY=  1.2931E-08              XZ=  6.7686E-08              YY=  3.4243E+00
                  YZ= -7.9503E-08              ZZ=  2.7018E+00
--
 
 
      Input file to MOLDEN was generated!
 
 
      Input file to MOLDEN was generated!
 
 
      Input file to MOLDEN was generated!
 
 
      Input file to MOLDEN was generated!
 
 
      Input file to MOLDEN was generated!
 
 
      Input file to MOLDEN was generated!
 
      Average orbitals are written to the RASORB file
      Natural orbitals for root   1 are written to the RASORB.1 file
      Natural orbitals for root   2 are written to the RASORB.2 file
      Natural orbitals for root   3 are written to the RASORB.3 file
      Natural orbitals for root   4 are written to the RASORB.4 file
      Natural orbitals for root   5 are written to the RASORB.5 file
      Spin density orbitals for root   1 are written to the SPDORB.1 file
      Spin density orbitals for root   2 are written to the SPDORB.2 file
      Spin density orbitals for root   3 are written to the SPDORB.3 file
      Spin density orbitals for root   4 are written to the SPDORB.4 file
      Spin density orbitals for root   5 are written to the SPDORB.5 file
 
--- Stop Module: rasscf at Tue May 28 12:53:04 2024 /rc=_RC_ALL_IS_WELL_ ---
--- Module rasscf spent 8 minutes 56 seconds ---

*** symbolic link created: INPORB -> MOLCAS.RasOrb
--- Start Module: caspt2 at Tue May 28 12:53:04 2024 ---
 
()()()()()()()()()()()()()()()()()()()()()()()()()()()()()()()()()()()()()()()()()()()()()()()()()()

                                              &CASPT2

                                   only a single process is used
                       available to each process: 2.0 GB of memory, 1 thread?
                                            pid: 2739775
()()()()()()()()()()()()()()()()()()()()()()()()()()()()()()()()()()()()()()()()()()()()()()()()()()
 
 ###############################################################################
 ###############################################################################
 ###                                                                         ###
 ###                                                                         ###
 ###    WARNING: Too large iRlxRoot.                                         ###
 ###                                                                         ###
 ###                                                                         ###
 ###############################################################################
 ###############################################################################
  Reset to NSTATE=                     3
 
++    Wave function specifications:
      -----------------------------
 
      Number of closed shell electrons          18
      Number of electrons in active shells       6
      Max number of holes in RAS1 space          0
      Max number of electrons in RAS3 space      0
      Number of inactive orbitals                9
      Number of active orbitals                  5
      Number of secondary orbitals             382
      Spin quantum number                      0.0
      State symmetry                             1
      Number of CSFs                            50
      Number of CASSCF root(s) available         5
      CASPT2 state passed to geometry opt.       3
      A file JOBMIX will be created
      This is a MULTI-STATE CASSCF reference
      Number of CI roots used                    3
      These are:                                 1   2   3
      Off-diagonal elements of Heff are computed
--
 
++    Orbital specifications:
      -----------------------
 
      Symmetry species                           1
                                                 a
      Frozen orbitals                            8
      Inactive orbitals                          9
      Active orbitals                            5
      Secondary orbitals                       382
      Deleted orbitals                           0
      Number of basis functions                404
--
 
++    CASPT2 specifications:
      ----------------------
 
      Type of calculation                        MS-CASPT2
      Fock operator                              state-specific
      IPEA shift                                 0.25
      Real shift                                 0.00
      Imaginary shift                            0.10
      The input orbitals will be transformed to quasi-canonical
--
 
--------------------------------------------------------------------------------
 Estimated memory requirements:
  POLY3 :                   252780
  RHS:                     7461034
  SIGMA :                 13417540
  PRPCTL:                        0
 Available workspace:    224709224
 
++ CASPT2 computation for group   1
 
********************************************************************************
 Multi-State initialization phase begins for group   1
--------------------------------------------------------------------------------
********************************************************************************
 Compute H0 matrices for state    1
--------------------------------------------------------------------------------
--------------------------------------------------------------------------------
 H0 matrices have been computed.
 
********************************************************************************
  CASPT2 EQUATION SOLUTION
--------------------------------------------------------------------------------
 
  Total nr of CASPT2 parameters:
   Before reduction:    14679746
   After  reduction:    14653005
 
 Variance of |WF0>:       2.9881512436
 
 The contributions to the second order correlation energy in atomic units.
-----------------------------------------------------------------------------------------------------------------------------
  IT.      VJTU        VJTI        ATVX        AIVX        VJAI        BVAT        BJAT        BJAI        TOTAL       RNORM  
-----------------------------------------------------------------------------------------------------------------------------
   1    -0.004717   -0.002407   -0.024173   -0.041536   -0.020643   -0.079295   -0.130435   -0.392153   -0.695358    0.007764
   2    -0.004827   -0.002449   -0.024418   -0.041814   -0.020724   -0.079416   -0.130513   -0.392275   -0.696437    0.001012
   3    -0.004826   -0.002449   -0.024440   -0.041837   -0.020725   -0.079430   -0.130527   -0.392278   -0.696512    0.000137
   4    -0.004826   -0.002449   -0.024438   -0.041834   -0.020724   -0.079429   -0.130524   -0.392275   -0.696498    0.000019
   5    -0.004826   -0.002449   -0.024437   -0.041834   -0.020724   -0.079428   -0.130524   -0.392275   -0.696497    0.000003
-----------------------------------------------------------------------------------------------------------------------------
 
  FINAL CASPT2 RESULT:
 
      Reference energy:        -514.7103660973
      E2 (Non-variational):      -0.6964974542
      Shift correction:          -0.0009521815
      E2 (Variational):          -0.6974496357
      Total energy:            -515.4078157330
      Residual norm:              0.0000003673
      Reference weight:           0.81420
 
      Contributions to the CASPT2 correlation energy
      Active & Virtual Only:         -0.1038656909
      One Inactive Excited:          -0.1771834403
      Two Inactive Excited:          -0.4154483230
 
 
++ Denominators, etc.
--------------------------------------------------------------------------------------------------------------
 Report on small energy denominators, large coefficients, and large energy contributions.
CASE  SYMM ACTIVE-MIX  NON-ACTIVE INDICES          DENOMINATOR     RHS VALUE       COEFFICIENT     CONTRIBUTION
VJTU     1  Mu1.0004  In1.014                       1.09814187      0.02967879     -0.02545120     -0.00075536
ATVX     1  Mu1.0017  Se1.036                       1.62090497      0.03984979     -0.02600317     -0.00103622
ATVX     1  Mu1.0017  Se1.042                       1.71986887     -0.04768522      0.02815571     -0.00134261
BVATM    1  Mu1.0001  Se1.044 Se1.039               1.58825913     -0.04322652      0.02711936     -0.00117228
--
 
   (Skipping property calculation,
    use PROP keyword to activate)
--
 
++ CASPT2 computation for group   2
 
********************************************************************************
 Multi-State initialization phase begins for group   2
--------------------------------------------------------------------------------
********************************************************************************
 Compute H0 matrices for state    2
--------------------------------------------------------------------------------
--------------------------------------------------------------------------------
 H0 matrices have been computed.
 
********************************************************************************
  CASPT2 EQUATION SOLUTION
--------------------------------------------------------------------------------
 
  Total nr of CASPT2 parameters:
   Before reduction:    14679746
   After  reduction:    14577937
 
 Variance of |WF0>:       2.9921732575
 
 The contributions to the second order correlation energy in atomic units.
-----------------------------------------------------------------------------------------------------------------------------
  IT.      VJTU        VJTI        ATVX        AIVX        VJAI        BVAT        BJAT        BJAI        TOTAL       RNORM  
-----------------------------------------------------------------------------------------------------------------------------
   1    -0.009546   -0.001527   -0.024555   -0.048978   -0.025304   -0.073541   -0.132021   -0.392722   -0.708196    0.007826
   2    -0.009708   -0.001568   -0.024841   -0.049280   -0.025390   -0.073661   -0.132122   -0.392854   -0.709423    0.000976
   3    -0.009712   -0.001567   -0.024857   -0.049298   -0.025391   -0.073672   -0.132129   -0.392852   -0.709477    0.000135
   4    -0.009711   -0.001568   -0.024855   -0.049294   -0.025390   -0.073671   -0.132126   -0.392849   -0.709463    0.000019
   5    -0.009711   -0.001568   -0.024854   -0.049294   -0.025390   -0.073670   -0.132126   -0.392849   -0.709462    0.000003
-----------------------------------------------------------------------------------------------------------------------------
 
  FINAL CASPT2 RESULT:
 
      Reference energy:        -514.6138647703
      E2 (Non-variational):      -0.7094623791
      Shift correction:          -0.0012782045
      E2 (Variational):          -0.7107405836
      Total energy:            -515.3246053539
      Residual norm:              0.0000003971
      Reference weight:           0.80232
 
      Contributions to the CASPT2 correlation energy
      Active & Virtual Only:         -0.0985246750
      One Inactive Excited:          -0.1911311023
      Two Inactive Excited:          -0.4198066019
 
 
++ Denominators, etc.
--------------------------------------------------------------------------------------------------------------
 Report on small energy denominators, large coefficients, and large energy contributions.
CASE  SYMM ACTIVE-MIX  NON-ACTIVE INDICES          DENOMINATOR     RHS VALUE       COEFFICIENT     CONTRIBUTION
VJTU     1  Mu1.0002  In1.014                       0.55738832     -0.01771395      0.02631533     -0.00046615
VJTU     1  Mu1.0001  In1.015                       0.41978698      0.02776429     -0.06165306     -0.00171175
VJTU     1  Mu1.0001  In1.017                       0.33832897     -0.02536996      0.06901750     -0.00175097
ATVX     1  Mu1.0001  Se1.023                       0.20883880      0.00000000     -0.00000000     -0.00000000
ATVX     1  Mu1.0001  Se1.024                       0.24719425      0.00000000     -0.00000000     -0.00000000
ATVX     1  Mu1.0001  Se1.025                       0.26580929     -0.00000000      0.00000000     -0.00000000
ATVX     1  Mu1.0001  Se1.026                       0.29178246     -0.00000000      0.00000000     -0.00000000
ATVX     1  Mu1.0001  Se1.027                       0.29535973      0.00000000     -0.00000000     -0.00000000
ATVX     1  Mu1.0001  Se1.028                       0.29705954      0.00193426     -0.00723969     -0.00001400
ATVX     1  Mu1.0007  Se1.040                       0.98006863      0.02940481     -0.02895627     -0.00085145
ATVX     1  Mu1.0007  Se1.052                       1.14609294      0.03395438     -0.02893451     -0.00098245
AIVX     1  Mu1.0003  In1.012 Se1.044               1.33722142      0.03898232     -0.02858466     -0.00111430
--
 
   (Skipping property calculation,
    use PROP keyword to activate)
--
 
++ CASPT2 computation for group   3
 
********************************************************************************
 Multi-State initialization phase begins for group   3
--------------------------------------------------------------------------------
********************************************************************************
 Compute H0 matrices for state    3
--------------------------------------------------------------------------------
--------------------------------------------------------------------------------
 H0 matrices have been computed.
 
********************************************************************************
  CASPT2 EQUATION SOLUTION
--------------------------------------------------------------------------------
 
  Total nr of CASPT2 parameters:
   Before reduction:    14679746
   After  reduction:    14653005
 
 Variance of |WF0>:       3.0178664424
 
 The contributions to the second order correlation energy in atomic units.
-----------------------------------------------------------------------------------------------------------------------------
  IT.      VJTU        VJTI        ATVX        AIVX        VJAI        BVAT        BJAT        BJAI        TOTAL       RNORM  
-----------------------------------------------------------------------------------------------------------------------------
   1    -0.006323   -0.004838   -0.037694   -0.047316   -0.025737   -0.087538   -0.128020   -0.392111   -0.729576    0.008110
   2    -0.006488   -0.004899   -0.038068   -0.047647   -0.025810   -0.087677   -0.128144   -0.392215   -0.730949    0.001117
   3    -0.006491   -0.004900   -0.038094   -0.047669   -0.025810   -0.087690   -0.128155   -0.392222   -0.731031    0.000155
   4    -0.006492   -0.004899   -0.038090   -0.047665   -0.025808   -0.087687   -0.128151   -0.392219   -0.731011    0.000023
   5    -0.006492   -0.004899   -0.038090   -0.047665   -0.025807   -0.087687   -0.128151   -0.392219   -0.731010    0.000003
-----------------------------------------------------------------------------------------------------------------------------
 
  FINAL CASPT2 RESULT:
 
      Reference energy:        -514.4680186535
      E2 (Non-variational):      -0.7310104549
[...]
--
 
++ Velocity transition strengths (spin-free states):
   -------------------------------------------------
     for osc. strength at least  1.00000000E-05
 
      From   To        Osc. strength     Einstein coefficients Ax, Ay, Az (sec-1)    Total A (sec-1)
     -----------------------------------------------------------------------------------------------
         1    3       3.03378839E-01  6.15289260E-08  6.47295932E-10  4.21925117E+08  4.21925117E+08
     -----------------------------------------------------------------------------------------------
--
 
++ Length and velocity gauge comparison (spin-free states):
   --------------------------------------------------------
 
 --------------------------------------------------
 A comparison between the dipole oscillator strengths in 
 length and velocity gauge will be performed
 
     All dipole oscillator differences above the tolerance of   1.00000000E-01  will be printed 
 
 Due to basis set deficiency these oscillator may be problematic 
 
 The tolerance is defined as ABS(1-O_l/O_v) 
 O_l : dipole oscillator strength in length gauge
 O_p : dipole oscillator strength in velocity gauge
 --------------------------------------------------
 
  Problematic transitions have been found
 
      From   To       Difference (%) Osc. st. (len.) Osc. st. (vel.)
     ---------------------------------------------------------------
         1    3            28.135197  2.18022604E-01  3.03378839E-01
     ---------------------------------------------------------------
 
 Number of problematic transitions =                      1
 
--
 
 Electric-dipole - electric-octupole not included
 Electric-dipole - magnetic-quadrupole not included
 
 
      ****************************************************************************************************
      *                                                                                                  *
      *                                    Special properties section                                    *
      *                                                                                                  *
      ****************************************************************************************************
 
 
++ I/O STATISTICS
 
  I. General I/O information
  - - - - - - - - - - - - - - - - - - - - - - - - - - - - - - - - - - - - - - - - - - -
  Unit  Name          Flsize      Write/Read            MBytes           Write/Read
                      (MBytes)       Calls              In/Out           Time, sec.
  - - - - - - - - - - - - - - - - - - - - - - - - - - - - - - - - - - - - - - - - - - -
   1  ANNI              0.00 .       0/       0 .      0.0/      0.0 .       0/       0
   2  RUNFILE           6.69 .     161/    1713 .      1.1/     12.4 .       0/       0
   3  ONEINT           21.34 .       0/   27985 .      0.0/   1165.7 .       0/       0
   4  JOB001           17.34 .       0/      51 .      0.0/      4.8 .       0/       0
   5  JOB002           17.34 .       0/      45 .      0.0/      4.8 .       0/       0
   6  TDMFILE          48.58 .      39/      30 .     48.6/     37.4 .       0/       0
  - - - - - - - - - - - - - - - - - - - - - - - - - - - - - - - - - - - - - - - - - - -
   *  TOTAL           111.28 .     200/   29824 .     49.7/   1225.1 .       0/       0
  - - - - - - - - - - - - - - - - - - - - - - - - - - - - - - - - - - - - - - - - - - -
 
  II. I/O Access Patterns
  - - - - - - - - - - - - - - - - - - - -
  Unit  Name               % of random
                         Write/Read calls
  - - - - - - - - - - - - - - - - - - - -
   1  ANNI                 0.0/   0.0
   2  RUNFILE             28.6/  10.7
   3  ONEINT               0.0/   3.7
   4  JOB001               0.0/  74.5
   5  JOB002               0.0/  77.8
   6  TDMFILE             97.4/ 100.0
  - - - - - - - - - - - - - - - - - - - -
--
--- Stop Module: rassi at Tue May 28 13:41:53 2024 /rc=_RC_ALL_IS_WELL_ ---
--- Module rassi spent 2 seconds ---

>>> COPY MOLCAS.rassi.h5 MOLCAS.rassi.trd1.h5

>>> COPY MOLCAS.rassi.h5.bak MOLCAS.rassi.h5

>>> COPY MOLCAS.2.JobIph JOB001

>>> COPY MOLCAS.4.JobIph JOB002

*** symbolic link created: INPORB -> MOLCAS.RasOrb
--- Start Module: rassi at Tue May 28 13:41:54 2024 ---
 
()()()()()()()()()()()()()()()()()()()()()()()()()()()()()()()()()()()()()()()()()()()()()()()()()()

                                               &RASSI

                                   only a single process is used
                       available to each process: 2.0 GB of memory, 1 thread?
                                            pid: 2781685
()()()()()()()()()()()()()()()()()()()()()()()()()()()()()()()()()()()()()()()()()()()()()()()()()()
 
 
      ********************************************************************************
      *                                                                              *
      *                             General data section                             *
      *                                                                              *
      ********************************************************************************
 
   Specific data for JOBIPH file 
 JOB001                                                                         
                                                  
   -------------------------------------
 
   Header from SEWARD:
                                                                               
        Integrals generated by Gateway/Seward, Tue May 28 12:42:42 2024        
 
   CASSCF title (first line only):
       (No title given)                                                        
 
   STATE IRREP:                             1
   SPIN MULTIPLICITY:                       2
   ACTIVE ELECTRONS:                        5
   MAX RAS1 HOLES:                          0
   MAX RAS3 ELECTRONS:                      0
   NR OF CONFIG:                           75
 
   Specific data for JOBIPH file 
 JOB002                                                                         
                                                  
   -------------------------------------
 
   Header from SEWARD:
                                                                               
        Integrals generated by Gateway/Seward, Tue May 28 12:42:42 2024        
 
   CASSCF title (first line only):
       (No title given)                                                        
 
   STATE IRREP:                             1
   SPIN MULTIPLICITY:                       4
   ACTIVE ELECTRONS:                        5
   MAX RAS1 HOLES:                          0
   MAX RAS3 ELECTRONS:                      0
   NR OF CONFIG:                           24
 
  Info: creating TDMFILE
        estimated file size                   3825 kB
        TDMs in AO format
 
 ###############################################################################
 ###############################################################################
 ###                                                                         ###
 ###                                                                         ###
 ###    WARNING: EJOB used when HEFF is available, possible                  ###
 ###    extra interaction between states is ignored!                         ###
 ###                                                                         ###
 ###                                                                         ###
 ###############################################################################
 ###############################################################################
 
   The following data are common to all the states:
   ------------------------------------------------
   (note: frozen counts as inactive, deleted as secondary)
 
      Nr of irreps: 1
 
                 Total     No./Irrep 
      Irrep                  1
                             a
 
      INACTIVE      17      17
      ACTIVE         5       5
      SECONDARY    382     382
      BASIS        404     404
 
      RAS1           0       0
      RAS2           5       5
      RAS3           0       0
 
        MATRIX ELEMENTS WILL BE COMPUTED FOR THE FOLLOWING ONE-ELECTRON OPERATOR
 S, UNLESS ZERO BY SYMMETRY.
   (Herm=Hermitian, Anti=Antihermitian, Sing=Singlet operator, Trip=Triplet oper
 ator)
     MLTPL  0   1 (HERMSING)     MLTPL  1   1 (HERMSING)     MLTPL  1   2 (HERMSING)
     MLTPL  1   3 (HERMSING)     MLTPL  2   1 (HERMSING)     MLTPL  2   2 (HERMSING)
     MLTPL  2   3 (HERMSING)     MLTPL  2   4 (HERMSING)     MLTPL  2   5 (HERMSING)
     MLTPL  2   6 (HERMSING)     VELOCITY   1 (ANTISING)     VELOCITY   2 (ANTISING)
     VELOCITY   3 (ANTISING)     ANGMOM     1 (ANTISING)     ANGMOM     2 (ANTISING)
     ANGMOM     3 (ANTISING)     MLTPV  2   1 (ANTISING)     MLTPV  2   2 (ANTISING)
     MLTPV  2   3 (ANTISING)     MLTPV  2   4 (ANTISING)     MLTPV  2   5 (ANTISING)
     MLTPV  2   6 (ANTISING)
 
       EIGENSTATES OF A SPIN-FREE HAMILTONIAN WILL BE COMPUTED BASED ON:
 
  a Hamiltonian matrix assumed to be diagonal with energies read from the wavefu
 nction file(s).
 
  Nr of states:                     2
 
   State:        1   2
  JobIph:        1   2
 Root nr:        1   1
 
  HAMILTONIAN MATRIX FOR THE ORIGINAL STATES:
 
  Diagonal, with energies
   -515.08880962   -514.95261250
 
      OVERLAP MATRIX FOR THE ORIGINAL STATES:
 
  Diagonal, with elements
      1.00000000      1.00000000
 
++ Matrix elements for input states
   --------------------------------
 
  MATRIX ELEMENTS OF 1-ELECTRON OPERATORS
  FOR THE RASSCF INPUT WAVE FUNCTIONS:
 
 
 PROPERTY: MLTPL  0   COMPONENT:*   1
 ORIGIN    :   0.00000000D+00   0.00000000D+00   0.00000000D+00
 STATE     :       1                2
 
     1         1.00000000     -0.438559779E-16
     2       -0.438559779E-16   1.00000000    
 
 
 PROPERTY: MLTPL  1   COMPONENT:*   1
 ORIGIN    :   0.00000000D+00   0.00000000D+00   0.00000000D+00
 STATE     :       1                2
 
     1        0.175818160E-08 -0.147260337E-23
     2       -0.147260337E-23  0.197137306E-08
 
 
 PROPERTY: MLTPL  1   COMPONENT:*   2
 ORIGIN    :   0.00000000D+00   0.00000000D+00   0.00000000D+00
 STATE     :       1                2
 
     1        0.141023015E-08 -0.588938592E-26
     2       -0.588938592E-26 -0.497189845E-09
 
 
 PROPERTY: MLTPL  1   COMPONENT:*   3
 ORIGIN    :   0.00000000D+00   0.00000000D+00   0.00000000D+00
 STATE     :       1                2
 
     1        0.328436717     -0.803790797E-16
     2       -0.803790797E-16 -0.418227068    
 
 
 PROPERTY: MLTPL  2   COMPONENT:*   1
 ORIGIN    :   0.00000000D+00   0.00000000D+00   0.22385814D-02
 STATE     :       1                2
 
     1        -21.6141219     -0.300436702E-16
     2       -0.300436702E-16  -21.0874403    
 
 
 PROPERTY: MLTPL  2   COMPONENT:*   2
 ORIGIN    :   0.00000000D+00   0.00000000D+00   0.22385814D-02
 STATE     :       1                2
 
     1       -0.522393240E-09  0.116370188E-25
     2        0.116370188E-25 -0.124722044E-08
 
 
 PROPERTY: MLTPL  2   COMPONENT:*   3
 ORIGIN    :   0.00000000D+00   0.00000000D+00   0.22385814D-02
 STATE     :       1                2
 
     1        0.576489767E-08  0.451018661E-23
     2        0.451018661E-23 -0.861726468E-09
 
 
 PROPERTY: MLTPL  2   COMPONENT:*   4
 ORIGIN    :   0.00000000D+00   0.00000000D+00   0.22385814D-02
 STATE     :       1                2
 
     1        -16.7471396     -0.134691476E-15
     2       -0.134691476E-15  -18.1646575    
 
 
 PROPERTY: MLTPL  2   COMPONENT:*   5
 ORIGIN    :   0.00000000D+00   0.00000000D+00   0.22385814D-02
 STATE     :       1                2
 
     1       -0.816098833E-08  0.140585097E-25
     2        0.140585097E-25  0.177586301E-08
 
 
 PROPERTY: MLTPL  2   COMPONENT:*   6
 ORIGIN    :   0.00000000D+00   0.00000000D+00   0.22385814D-02
 STATE     :       1                2
 
     1        -15.2852340      0.508691358E-16
     2        0.508691358E-16  -15.3938014    
 
 
 PROPERTY: VELOCITY   COMPONENT:*   1
 ORIGIN    :   0.00000000D+00   0.00000000D+00   0.00000000D+00
 STATE     :       1                2
 
     1       -0.804513542E-16  0.181574937E-24
     2       -0.181574937E-24 -0.280044828E-16
 
 
 PROPERTY: VELOCITY   COMPONENT:*   2
 ORIGIN    :   0.00000000D+00   0.00000000D+00   0.00000000D+00
 STATE     :       1                2
 
     1       -0.103723652E-16  0.302667479E-26
     2       -0.302667479E-26  0.126482235E-15
 
 
 PROPERTY: VELOCITY   COMPONENT:*   3
 ORIGIN    :   0.00000000D+00   0.00000000D+00   0.00000000D+00
 STATE     :       1                2
 
     1       -0.109952191E-16  0.299854686E-16
     2       -0.299854686E-16 -0.596751353E-16
 
 
 PROPERTY: ANGMOM     COMPONENT:*   1
 ORIGIN    :   0.00000000D+00   0.00000000D+00   0.00000000D+00
 STATE     :       1                2
 
     1       -0.271915227E-15  0.908034850E-26
     2       -0.908034850E-26  0.232238796E-15
 
 
 PROPERTY: ANGMOM     COMPONENT:*   2
 ORIGIN    :   0.00000000D+00   0.00000000D+00   0.00000000D+00
 STATE     :       1                2
 
     1        0.223782577E-15  0.353221327E-23
     2       -0.353221327E-23  0.922273792E-16
 
 
 PROPERTY: ANGMOM     COMPONENT:*   3
 ORIGIN    :   0.00000000D+00   0.00000000D+00   0.00000000D+00
 STATE     :       1                2
 
     1       -0.310245484E-16  0.527372911E-25
     2       -0.527372911E-25 -0.116692340E-15
 
 
 PROPERTY: MLTPV  2   COMPONENT:*   1
 ORIGIN    :   0.00000000D+00   0.00000000D+00   0.22385814D-02
 STATE     :       1                2
 
     1       -0.396267070E-15  0.389649394E-16
     2       -0.389649394E-16 -0.168416140E-15
 
 
 PROPERTY: MLTPV  2   COMPONENT:*   2
 ORIGIN    :   0.00000000D+00   0.00000000D+00   0.22385814D-02
 STATE     :       1                2
 
     1       -0.167010372E-16  0.236942408E-26
     2       -0.236942408E-26 -0.258022372E-16
 
 
 PROPERTY: MLTPV  2   COMPONENT:*   3
 ORIGIN    :   0.00000000D+00   0.00000000D+00   0.22385814D-02
 STATE     :       1                2
 
     1        0.814528136E-16  0.596277988E-24
     2       -0.596277988E-24  0.670995843E-16
 
 
 PROPERTY: MLTPV  2   COMPONENT:*   4
 ORIGIN    :   0.00000000D+00   0.00000000D+00   0.22385814D-02
 STATE     :       1                2
 
     1       -0.465103709E-15  0.265659170E-16
     2       -0.265659170E-16  0.198320929E-15
 
 
 PROPERTY: MLTPV  2   COMPONENT:*   5
 ORIGIN    :   0.00000000D+00   0.00000000D+00   0.22385814D-02
 STATE     :       1                2
 
     1       -0.205983284E-15 -0.185210331E-25
     2        0.185210331E-25 -0.212342977E-15
 
 
 PROPERTY: MLTPV  2   COMPONENT:*   6
 ORIGIN    :   0.00000000D+00   0.00000000D+00   0.22385814D-02
 STATE     :       1                2
 
     1        0.893023810E-16  0.824305548E-16
     2       -0.824305548E-16  0.249718143E-15
 
--
 
::    RASSI State    1     Total energy:    -515.08880962009403
::    RASSI State    2     Total energy:    -514.95261249987868
 
 
 
      ****************************************************************************************************
      *                                                                                                  *
      *                                         Spin-free section                                        *
      *                                                                                                  *
      *                 Note: index according to input order, order according to energy.                 *
      *                                                                                                  *
      ****************************************************************************************************
 
 
 
  SPIN-FREE ENERGIES:
  (Shifted by EMIN (a.u.) =       -515.0888096201)
 
 SF State       Relative EMIN(au)   Rel lowest level(eV)    D:o, cm**(-1)
 
     1             0.0000000000        0.0000000000              0.0000
     2             0.1361971202        3.7061124438          29891.8128
 
++ Dipole transition strengths (spin-free states):
   -----------------------------------------------
     for osc. strength at least  1.00000000E-05
 
  ( Max oscillator strength is only   5.866279142027675E-034 )
--
 
++ Velocity transition strengths (spin-free states):
   -------------------------------------------------
     for osc. strength at least  1.00000000E-05
 
  ( Max oscillator strength is only   4.401112781236202E-033 )
--
 
++ Length and velocity gauge comparison (spin-free states):
   --------------------------------------------------------
 
 --------------------------------------------------
 A comparison between the dipole oscillator strengths in 
 length and velocity gauge will be performed
 
     All dipole oscillator differences above the tolerance of   1.00000000E-01  will be printed 
 
 Due to basis set deficiency these oscillator may be problematic 
 
 The tolerance is defined as ABS(1-O_l/O_v) 
 O_l : dipole oscillator strength in length gauge
 O_p : dipole oscillator strength in velocity gauge
 --------------------------------------------------
 
 No problematic oscillator strengths above the tolerance 
  0.100000000000000       have been found
 
--
 
 Electric-dipole - electric-octupole not included
 Electric-dipole - magnetic-quadrupole not included
 
 
      ****************************************************************************************************
      *                                                                                                  *
      *                                    Special properties section                                    *
      *                                                                                                  *
      ****************************************************************************************************
 
 
++ I/O STATISTICS
 
  I. General I/O information
  - - - - - - - - - - - - - - - - - - - - - - - - - - - - - - - - - - - - - - - - - - -
  Unit  Name          Flsize      Write/Read            MBytes           Write/Read
                      (MBytes)       Calls              In/Out           Time, sec.
  - - - - - - - - - - - - - - - - - - - - - - - - - - - - - - - - - - - - - - - - - - -
   1  ANNI              0.00 .       0/       0 .      0.0/      0.0 .       0/       0
   2  RUNFILE           6.69 .     161/    1227 .      1.1/      8.9 .       0/       0
   3  ONEINT           21.34 .       0/    6337 .      0.0/    287.3 .       0/       0
   4  JOB001           17.34 .       0/      39 .      0.0/      4.8 .       0/       0
   5  JOB002           17.34 .       0/      39 .      0.0/      4.8 .       0/       0
   6  TDMFILE          11.21 .       9/       6 .     11.2/      7.5 .       0/       0
  - - - - - - - - - - - - - - - - - - - - - - - - - - - - - - - - - - - - - - - - - - -
   *  TOTAL            73.91 .     170/    7648 .     12.3/    313.2 .       0/       0
  - - - - - - - - - - - - - - - - - - - - - - - - - - - - - - - - - - - - - - - - - - -
 
  II. I/O Access Patterns
  - - - - - - - - - - - - - - - - - - - -
  Unit  Name               % of random
                         Write/Read calls
  - - - - - - - - - - - - - - - - - - - -
   1  ANNI                 0.0/   0.0
   2  RUNFILE             28.6/  10.6
   3  ONEINT               0.0/   3.9
   4  JOB001               0.0/  82.1
   5  JOB002               0.0/  82.1
   6  TDMFILE             88.9/ 100.0
  - - - - - - - - - - - - - - - - - - - -
--
--- Stop Module: rassi at Tue May 28 13:41:54 2024 /rc=_RC_ALL_IS_WELL_ ---

>>> COPY MOLCAS.rassi.h5 MOLCAS.rassi.trd2.h5

>>> COPY MOLCAS.rassi.h5.bak MOLCAS.rassi.h5

>>> COPY MOLCAS.rassi.h5.bak MOLCAS.rassi.h5

.##################.
.# Happy landing! #.
.##################.

    Timing: Wall=3551.85 User=3383.77 System=139.35
