[Molden Format]
[N_Atoms]
                    10
[Atoms] (AU)
C1          1      6           0.00000000     -2.42606819      2.17152208
C2          2      6           0.00000000      0.00000000      0.70256238
C3          3      6           0.00000000      2.42606819      2.17152208
S4          4     16           0.00000000      0.00000000     -2.36312142
H5          5      1           0.00000000     -2.11192012      4.19555104
H6          6      1           1.64685852     -3.54009954      1.66585027
H7          7      1          -1.64685852     -3.54009954      1.66585027
H8          8      1           0.00000000      2.11192012      4.19555104
H9          9      1          -1.64685852      3.54009954      1.66585027
H10        10      1           1.64685852      3.54009954      1.66585027
[5D]
[Charge] (Mulliken)
 -0.436831763924131     
 -0.328037461919292     
 -0.436831763292419     
  0.747874792739065     
  0.270351411396817     
  0.228280847036635     
  0.228280839664916     
  0.270351411462866     
  0.228280868394143     
  0.228280818440874     
[GTO] (AU)
   1
   s   6
  0.304752488E+04  0.183473713E-02
  0.457369518E+03  0.140373228E-01
  0.103948685E+03  0.688426223E-01
  0.292101553E+02  0.232184443E+00
  0.928666296E+01  0.467941348E+00
  0.316392696E+01  0.362311985E+00
   s   3
  0.786827235E+01 -0.119332420E+00
  0.188128854E+01 -0.160854152E+00
  0.544249258E+00  0.114345644E+01
   s   1
  0.168714478E+00  0.100000000E+01
   p   3
  0.786827235E+01  0.689990666E-01
  0.188128854E+01  0.316423961E+00
  0.544249258E+00  0.744308291E+00
   p   1
  0.168714478E+00  0.100000000E+01
 
   2
   s   6
  0.304752488E+04  0.183473713E-02
  0.457369518E+03  0.140373228E-01
  0.103948685E+03  0.688426223E-01
  0.292101553E+02  0.232184443E+00
  0.928666296E+01  0.467941348E+00
  0.316392696E+01  0.362311985E+00
   s   3
  0.786827235E+01 -0.119332420E+00
  0.188128854E+01 -0.160854152E+00
  0.544249258E+00  0.114345644E+01
   s   1
  0.168714478E+00  0.100000000E+01
   p   3
  0.786827235E+01  0.689990666E-01
  0.188128854E+01  0.316423961E+00
  0.544249258E+00  0.744308291E+00
   p   1
  0.168714478E+00  0.100000000E+01
 
   3
   s   6
  0.304752488E+04  0.183473713E-02
  0.457369518E+03  0.140373228E-01
  0.103948685E+03  0.688426223E-01
  0.292101553E+02  0.232184443E+00
  0.928666296E+01  0.467941348E+00
  0.316392696E+01  0.362311985E+00
   s   3
  0.786827235E+01 -0.119332420E+00
  0.188128854E+01 -0.160854152E+00
  0.544249258E+00  0.114345644E+01
   s   1
  0.168714478E+00  0.100000000E+01
   p   3
  0.786827235E+01  0.689990666E-01
  0.188128854E+01  0.316423961E+00
  0.544249258E+00  0.744308291E+00
   p   1
  0.168714478E+00  0.100000000E+01
 
   4
   s   6
  0.219171000E+05  0.186924085E-02
  0.330149000E+04  0.142303065E-01
  0.754146000E+03  0.696962317E-01
  0.212711000E+03  0.238487108E+00
  0.679896000E+02  0.483307220E+00
  0.230515000E+02  0.338074154E+00
   s   6
  0.423735000E+03 -0.237677050E-02
  0.100710000E+03 -0.316930066E-01
  0.321599000E+02 -0.113317024E+00
  0.118079000E+02  0.560900118E-01
  0.463110000E+01  0.592255124E+00
  0.187025000E+01  0.455006095E+00
   s   3
  0.261584000E+01 -0.250373114E+00
  0.922167000E+00  0.669567631E-01
  0.341287000E+00  0.105450627E+01
   s   1
  0.117167000E+00  0.100000000E+01
   p   6
  0.423735000E+03  0.406100998E-02
  0.100710000E+03  0.306812999E-01
  0.321599000E+02  0.130451999E+00
  0.118079000E+02  0.327204999E+00
  0.463110000E+01  0.452850998E+00
  0.187025000E+01  0.256041999E+00
   p   3
  0.261584000E+01 -0.145104895E-01
  0.922167000E+00  0.310262776E+00
  0.341287000E+00  0.754482456E+00
   p   1
  0.117167000E+00  0.100000000E+01
 
   5
   s   3
  0.187311370E+02  0.334946043E-01
  0.282539437E+01  0.234726954E+00
  0.640121692E+00  0.813757326E+00
   s   1
  0.161277759E+00  0.100000000E+01
 
   6
   s   3
  0.187311370E+02  0.334946043E-01
  0.282539437E+01  0.234726954E+00
  0.640121692E+00  0.813757326E+00
   s   1
  0.161277759E+00  0.100000000E+01
 
   7
   s   3
  0.187311370E+02  0.334946043E-01
  0.282539437E+01  0.234726954E+00
  0.640121692E+00  0.813757326E+00
   s   1
  0.161277759E+00  0.100000000E+01
 
   8
   s   3
  0.187311370E+02  0.334946043E-01
  0.282539437E+01  0.234726954E+00
  0.640121692E+00  0.813757326E+00
   s   1
  0.161277759E+00  0.100000000E+01
 
   9
   s   3
  0.187311370E+02  0.334946043E-01
  0.282539437E+01  0.234726954E+00
  0.640121692E+00  0.813757326E+00
   s   1
  0.161277759E+00  0.100000000E+01
 
  10
   s   3
  0.187311370E+02  0.334946043E-01
  0.282539437E+01  0.234726954E+00
  0.640121692E+00  0.813757326E+00
   s   1
  0.161277759E+00  0.100000000E+01
 
[MO]
Sym=     1a  
Ene=   -92.3070
Spin= Alpha
Occup=    2.00000
   1         0.00000423
   2         0.00004461
   3         0.00026134
   4         0.00000000
   5         0.00002996
   6        -0.00005919
   7        -0.00000000
   8         0.00016569
   9         0.00049682
  10        -0.00002457
  11         0.00012144
  12        -0.00020320
  13        -0.00000000
  14         0.00000000
  15        -0.00009413
  16         0.00000000
  17        -0.00000000
  18        -0.00072208
  19         0.00000423
  20         0.00004461
  21         0.00026134
  22         0.00000000
  23        -0.00002996
  24        -0.00005919
  25        -0.00000000
  26        -0.00016569
  27         0.00049682
  28         0.99668053
  29         0.01226349
  30        -0.00389791
  31         0.00186391
  32        -0.00000000
  33        -0.00000000
  34         0.00010646
  35         0.00000000
  36         0.00000000
  37        -0.00033623
  38        -0.00000000
  39         0.00000000
  40         0.00025353
  41        -0.00007753
  42        -0.00025562
  43         0.00006863
  44        -0.00004836
  45         0.00006863
  46        -0.00004836
  47        -0.00007753
  48        -0.00025562
  49         0.00006863
  50        -0.00004836
  51         0.00006863
  52        -0.00004836
Sym=     2a  
Ene=   -11.4990
Spin= Alpha
Occup=    2.00000
   1        -0.00453706
   2         0.00021886
   3        -0.00292019
   4         0.00000000
   5         0.00008939
   6         0.00006370
   7         0.00000000
   8        -0.00155794
   9         0.00064509
  10        -0.99616673
  11        -0.02565278
  12         0.01702218
  13         0.00000000
  14        -0.00000000
  15         0.00179685
  16        -0.00000000
  17        -0.00000000
  18        -0.00156901
  19        -0.00453706
  20         0.00021886
  21        -0.00292019
  22        -0.00000000
  23        -0.00008939
  24         0.00006370
  25         0.00000000
  26         0.00155794
  27         0.00064509
  28         0.00002754
  29        -0.00011703
  30         0.00019358
  31        -0.00462849
  32        -0.00000000
  33        -0.00000000
  34        -0.00015211
  35        -0.00000000
  36        -0.00000000
  37         0.00028274
  38         0.00000000
  39        -0.00000000
  40        -0.00293934
  41         0.00011424
  42         0.00028158
  43         0.00009694
  44        -0.00023883
  45         0.00009694
  46        -0.00023883
  47         0.00011424
  48         0.00028158
  49         0.00009694
  50        -0.00023883
  51         0.00009694
  52        -0.00023883
Sym=     3a  
Ene=   -11.4320
Spin= Alpha
Occup=    2.00000
   1        -0.70445688
   2        -0.01874082
   3         0.01450548
   4         0.00000000
   5        -0.00035675
   6         0.00030917
   7        -0.00000000
   8         0.00103361
   9        -0.00103096
  10        -0.00000002
  11        -0.00000000
  12         0.00000001
  13        -0.00000000
  14        -0.00029034
  15        -0.00000000
  16         0.00000000
  17         0.00415655
  18         0.00000000
  19         0.70446053
  20         0.01874091
  21        -0.01450554
  22        -0.00000000
  23        -0.00035675
  24        -0.00030917
  25         0.00000000
  26         0.00103361
  27         0.00103097
  28        -0.00000000
  29        -0.00000000
  30        -0.00000000
  31         0.00000000
  32         0.00000000
  33         0.00000683
  34        -0.00000000
  35         0.00000000
  36        -0.00017142
  37        -0.00000000
  38        -0.00000000
  39        -0.00004577
  40         0.00000000
  41        -0.00011963
  42        -0.00217362
  43        -0.00011865
  44        -0.00233382
  45        -0.00011865
  46        -0.00233382
  47         0.00011963
  48         0.00217363
  49         0.00011865
  50         0.00233383
  51         0.00011866
  52         0.00233383
Sym=     4a  
Ene=   -11.4320
Spin= Alpha
Occup=    2.00000
   1         0.70438688
   2         0.01805663
   3        -0.01240961
   4        -0.00000000
   5         0.00019647
   6        -0.00031519
   7         0.00000000
   8        -0.00041406
   9         0.00059365
  10        -0.00661175
  11        -0.00064560
  12         0.00519402
  13        -0.00000000
  14         0.00000000
  15        -0.00028387
  16        -0.00000000
  17        -0.00000001
  18         0.00192249
  19         0.70438323
  20         0.01805653
  21        -0.01240954
  22        -0.00000000
  23        -0.00019647
  24        -0.00031519
  25         0.00000000
  26         0.00041406
  27         0.00059365
  28        -0.00000937
  29        -0.00002075
  30        -0.00036607
  31         0.00086804
  32        -0.00000000
  33        -0.00000000
  34        -0.00001782
  35         0.00000000
  36         0.00000000
  37        -0.00004437
  38        -0.00000000
  39         0.00000000
  40         0.00058733
  41        -0.00000731
  42         0.00194714
  43         0.00004297
  44         0.00220215
  45         0.00004297
  46         0.00220215
  47        -0.00000731
  48         0.00194713
  49         0.00004297
  50         0.00220213
  51         0.00004297
  52         0.00220213
Sym=     5a  
Ene=    -9.3248
Spin= Alpha
Occup=    2.00000
   1        -0.00000284
   2        -0.00002087
   3        -0.00098198
   4        -0.00000000
   5        -0.00006417
   6         0.00011577
   7        -0.00000000
   8        -0.00045835
   9        -0.00121307
  10        -0.00024675
  11        -0.00020349
  12         0.00076665
  13         0.00000000
  14         0.00000000
  15        -0.00006368
  16        -0.00000000
  17         0.00000000
  18         0.00216223
  19        -0.00000284
  20        -0.00002087
  21        -0.00098198
  22        -0.00000000
  23         0.00006417
  24         0.00011577
  25        -0.00000000
  26         0.00045835
  27        -0.00121307
  28        -0.28187572
  29         1.03077596
  30         0.02099099
  31        -0.00581019
  32        -0.00000000
  33        -0.00000000
  34         0.00783048
  35        -0.00000000
  36         0.00000000
  37         0.00199372
  38         0.00000000
  39         0.00000000
  40        -0.00103349
  41         0.00020051
  42         0.00064960
  43        -0.00015495
  44         0.00021690
  45        -0.00015495
  46         0.00021690
  47         0.00020051
  48         0.00064960
  49        -0.00015495
  50         0.00021690
  51        -0.00015495
  52         0.00021690
Sym=     6a  
Ene=    -7.0054
Spin= Alpha
Occup=    2.00000
   1         0.00001531
   2         0.00012834
   3        -0.00161830
   4        -0.00000000
   5        -0.00011397
   6         0.00007637
   7        -0.00000000
   8        -0.00093164
   9        -0.00118525
  10        -0.00048873
  11        -0.00024693
  12         0.00039902
  13        -0.00000000
  14        -0.00000000
  15        -0.00047662
  16         0.00000000
  17         0.00000000
  18         0.00450234
  19         0.00001531
  20         0.00012834
  21        -0.00161830
  22        -0.00000000
  23         0.00011397
  24         0.00007637
  25        -0.00000000
  26         0.00093164
  27        -0.00118525
  28         0.00245523
  29        -0.00897785
  30         0.00267284
  31         0.00059653
  32         0.00000001
  33         0.00000000
  34         0.99267286
  35         0.00000000
  36         0.00000000
  37         0.02465676
  38        -0.00000000
  39        -0.00000000
  40        -0.00523468
  41         0.00033139
  42         0.00066024
  43        -0.00010980
  44         0.00018780
  45        -0.00010980
  46         0.00018780
  47         0.00033139
  48         0.00066024
  49        -0.00010980
  50         0.00018780
  51        -0.00010980
  52         0.00018780
Sym=     7a  
Ene=    -7.0023
Spin= Alpha
Occup=    2.00000
   1         0.00005718
   2         0.00040995
   3        -0.00323704
   4         0.00000000
   5        -0.00003132
   6        -0.00006336
   7         0.00000000
   8        -0.00130614
   9         0.00254990
  10        -0.00000000
  11         0.00000000
  12         0.00000000
  13         0.00000000
  14         0.00024246
  15         0.00000000
  16         0.00000000
  17        -0.00520307
  18        -0.00000000
  19        -0.00005718
  20        -0.00040995
  21         0.00323704
  22         0.00000000
  23        -0.00003132
  24         0.00006336
  25         0.00000000
  26        -0.00130614
  27        -0.00254990
  28        -0.00000000
  29         0.00000000
  30        -0.00000000
  31        -0.00000000
  32        -0.00000000
  33         0.99318143
  34        -0.00000000
  35        -0.00000000
  36         0.02288894
  37        -0.00000000
  38         0.00000000
  39        -0.00540628
  40         0.00000000
  41        -0.00003425
  42        -0.00096126
  43         0.00032078
  44        -0.00037647
  45         0.00032078
  46        -0.00037647
  47         0.00003425
  48         0.00096126
  49        -0.00032078
  50         0.00037647
  51        -0.00032078
  52         0.00037647
Sym=     8a  
Ene=    -7.0006
Spin= Alpha
Occup=    2.00000
   1         0.00000000
   2         0.00000000
   3        -0.00000000
   4        -0.00006252
   5         0.00000000
   6         0.00000000
   7        -0.00008381
   8        -0.00000000
   9         0.00000000
  10        -0.00000000
  11        -0.00000000
  12         0.00000001
  13        -0.00004346
  14         0.00000000
  15         0.00000000
  16         0.00034289
  17        -0.00000000
  18         0.00000000
  19         0.00000000
  20         0.00000000
  21        -0.00000000
  22        -0.00006252
  23        -0.00000000
  24         0.00000000
  25        -0.00008381
  26         0.00000000
  27         0.00000000
  28        -0.00000000
  29         0.00000000
  30        -0.00000000
  31        -0.00000000
  32         0.99347586
  33         0.00000000
  34        -0.00000001
  35         0.02156036
  36         0.00000000
  37        -0.00000000
  38        -0.00485300
  39         0.00000000
  40        -0.00000000
  41         0.00000000
  42         0.00000000
  43        -0.00012906
  44         0.00038024
  45         0.00012906
  46        -0.00038024
  47         0.00000000
  48         0.00000000
  49         0.00012906
  50        -0.00038024
  51        -0.00012906
  52         0.00038024
Sym=     9a  
Ene=    -1.3727
Spin= Alpha
Occup=    2.00000
   1        -0.06213762
   2         0.11583663
   3         0.10466356
   4        -0.00000000
   5         0.04447425
   6        -0.03669542
   7        -0.00000000
   8         0.00897002
   9        -0.01077559
  10        -0.14406565
  11         0.28209831
  12         0.22228633
  13        -0.00000000
  14         0.00000000
  15        -0.06740295
  16         0.00000000
  17         0.00000000
  18        -0.04860014
  19        -0.06213762
  20         0.11583663
  21         0.10466356
  22        -0.00000000
  23        -0.04447425
  24        -0.03669542
  25         0.00000000
  26        -0.00897002
  27        -0.01077559
  28         0.05083780
  29        -0.22936367
  30         0.49867398
  31         0.06244255
  32         0.00000000
  33        -0.00000000
  34        -0.06195771
  35        -0.00000000
  36         0.00000000
  37         0.14184597
  38        -0.00000000
  39         0.00000000
  40        -0.03886819
  41         0.02309586
  42        -0.00015211
  43         0.02833194
  44        -0.00139108
  45         0.02833194
  46        -0.00139108
  47         0.02309586
  48        -0.00015211
  49         0.02833194
  50        -0.00139108
  51         0.02833194
  52        -0.00139108
Sym=    10a  
Ene=    -1.1933
Spin= Alpha
Occup=    2.00000
   1        -0.10958715
   2         0.20819295
   3         0.22136728
   4        -0.00000000
   5         0.02577509
   6         0.00925668
   7        -0.00000000
   8         0.01141384
   9        -0.00714645
  10        -0.04102538
  11         0.08902573
  12         0.02949146
  13        -0.00000000
  14        -0.00000000
  15         0.17626797
  16         0.00000000
  17        -0.00000000
  18         0.02036214
  19        -0.10958715
  20         0.20819295
  21         0.22136728
  22        -0.00000000
  23        -0.02577509
  24         0.00925668
  25        -0.00000000
  26        -0.01141384
  27        -0.00714645
  28        -0.04822133
  29         0.21721074
  30        -0.48905127
  31        -0.14744864
  32        -0.00000000
  33         0.00000000
  34         0.02209647
  35         0.00000000
  36        -0.00000000
  37        -0.05861002
  38        -0.00000000
  39        -0.00000000
  40         0.00073858
  41         0.07854244
  42         0.01667163
  43         0.06342298
  44         0.00687984
  45         0.06342298
  46         0.00687984
  47         0.07854244
  48         0.01667163
  49         0.06342298
  50         0.00687984
  51         0.06342298
  52         0.00687984
Sym=    11a  
Ene=    -1.1628
Spin= Alpha
Occup=    2.00000
   1         0.13989864
   2        -0.26761671
   3        -0.26375532
   4         0.00000000
   5         0.01063816
   6         0.01841993
   7        -0.00000000
   8         0.00804365
   9         0.00915260
  10         0.00000000
  11        -0.00000000
  12        -0.00000000
  13         0.00000000
  14         0.19189908
  15         0.00000000
  16         0.00000000
  17         0.06974009
  18        -0.00000000
  19        -0.13989864
  20         0.26761671
  21         0.26375532
  22         0.00000000
  23         0.01063816
  24        -0.01841993
  25         0.00000000
  26         0.00804365
  27        -0.00915260
  28        -0.00000000
  29         0.00000000
  30        -0.00000000
  31        -0.00000000
  32        -0.00000000
  33        -0.01521390
  34        -0.00000000
  35         0.00000000
  36         0.03478687
  37         0.00000000
  38        -0.00000000
  39        -0.00140681
  40         0.00000000
  41        -0.08597837
  42        -0.01388458
  43        -0.09737647
  44        -0.01433554
  45        -0.09737647
  46        -0.01433555
  47         0.08597837
  48         0.01388458
  49         0.09737647
  50         0.01433555
  51         0.09737647
  52         0.01433555
Sym=    12a  
Ene=    -0.9183
Spin= Alpha
Occup=    2.00000
   1        -0.05303071
   2         0.09694706
   3         0.18411171
   4         0.00000000
   5        -0.20552260
   6         0.10851908
   7         0.00000000
   8        -0.04856780
   9         0.03190671
  10         0.13488274
  11        -0.26965462
  12        -0.43862649
  13         0.00000000
  14        -0.00000000
  15        -0.10632986
  16        -0.00000000
  17        -0.00000000
  18        -0.03901158
  19        -0.05303071
  20         0.09694706
  21         0.18411171
  22        -0.00000000
  23         0.20552260
  24         0.10851908
  25         0.00000000
  26         0.04856780
  27         0.03190671
  28         0.02856257
  29        -0.12931439
  30         0.29989917
  31         0.18422079
  32         0.00000000
  33         0.00000000
  34         0.03870509
  35        -0.00000000
  36        -0.00000000
  37        -0.08491490
  38         0.00000000
  39        -0.00000000
  40         0.02848479
  41         0.09108922
  42         0.04059425
  43         0.09125945
  44         0.03936292
  45         0.09125944
  46         0.03936291
  47         0.09108922
  48         0.04059425
  49         0.09125945
  50         0.03936292
  51         0.09125944
  52         0.03936291
Sym=    13a  
Ene=    -0.8017
Spin= Alpha
Occup=    2.00000
   1         0.00660021
   2        -0.00826768
   3        -0.03780772
   4         0.00000002
   5         0.16580195
   6         0.25746725
   7         0.00000001
   8         0.08397305
   9         0.15257771
  10         0.00952676
  11        -0.01122911
  12        -0.04080470
  13         0.00000001
  14        -0.00000013
  15         0.07504921
  16         0.00000000
  17        -0.00000013
  18         0.04785777
  19         0.00660020
  20        -0.00826766
  21        -0.03780757
  22         0.00000001
  23        -0.16580187
  24         0.25746746
  25         0.00000000
  26        -0.08397305
  27         0.15257778
  28         0.01488569
  29        -0.06668157
  30         0.16251367
  31         0.10473129
  32        -0.00000000
  33         0.00000002
  34         0.02730788
  35         0.00000000
  36        -0.00000005
  37        -0.05932853
  38         0.00000000
  39         0.00000000
  40         0.01305675
  41         0.17694528
  42         0.10462902
  43        -0.09868391
  44        -0.05652848
  45        -0.09868393
  46        -0.05652850
  47         0.17694541
  48         0.10462909
  49        -0.09868392
  50        -0.05652849
  51        -0.09868390
  52        -0.05652848
Sym=    14a  
Ene=    -0.8014
Spin= Alpha
Occup=    2.00000
   1        -0.01951693
   2         0.02796729
   3         0.18771118
   4        -0.00000002
   5        -0.10257996
   6         0.27159437
   7        -0.00000001
   8         0.01000630
   9         0.08809846
  10         0.00000000
  11        -0.00000000
  12        -0.00000002
  13        -0.00000001
  14         0.33827729
  15         0.00000003
  16        -0.00000000
  17         0.32456148
  18         0.00000002
  19         0.01951694
  20        -0.02796730
  21        -0.18771121
  22        -0.00000002
  23        -0.10258009
  24        -0.27159417
  25        -0.00000001
  26         0.01000624
  27        -0.08809834
  28         0.00000001
  29        -0.00000003
  30         0.00000006
  31         0.00000004
  32         0.00000000
  33        -0.05119672
  34         0.00000001
  35        -0.00000000
  36         0.12432374
  37        -0.00000002
  38        -0.00000000
  39        -0.00085648
  40         0.00000001
  41         0.16671364
  42         0.09416553
  43         0.01143625
  44         0.00751714
  45         0.01143627
  46         0.00751715
  47        -0.16671350
  48        -0.09416545
  49        -0.01143633
  50        -0.00751718
  51        -0.01143635
  52        -0.00751720
Sym=    15a  
Ene=    -0.7903
Spin= Alpha
Occup=    2.00000
   1        -0.00000000
   2         0.00000000
   3         0.00000004
   4         0.31134123
   5        -0.00000001
   6         0.00000000
   7         0.15090591
   8         0.00000002
   9         0.00000001
  10         0.00000000
  11         0.00000002
  12        -0.00000011
  13         0.12321255
  14         0.00000002
  15        -0.00000000
  16         0.04476324
  17        -0.00000002
  18        -0.00000005
  19        -0.00000000
  20        -0.00000001
  21         0.00000005
  22         0.31134123
  23        -0.00000000
  24        -0.00000003
  25         0.15090591
  26        -0.00000005
  27        -0.00000004
  28        -0.00000000
  29         0.00000000
  30        -0.00000002
  31        -0.00000000
  32        -0.01915512
  33        -0.00000000
  34        -0.00000000
  35         0.04695525
  36         0.00000001
  37        -0.00000000
  38         0.01529303
  39        -0.00000000
  40         0.00000001
  41         0.00000000
  42        -0.00000002
  43         0.16181933
  44         0.11385123
  45        -0.16181932
  46        -0.11385122
  47        -0.00000002
  48        -0.00000000
  49        -0.16181932
  50        -0.11385121
  51         0.16181933
  52         0.11385124
Sym=    16a  
Ene=    -0.7464
Spin= Alpha
Occup=    2.00000
   1         0.00000000
   2         0.00000001
   3        -0.00000006
   4        -0.32380255
   5        -0.00000001
   6         0.00000000
   7        -0.18105137
   8        -0.00000003
   9         0.00000003
  10        -0.00000000
  11        -0.00000002
  12         0.00000009
  13        -0.00000000
  14         0.00000001
  15        -0.00000000
  16        -0.00000000
  17        -0.00000004
  18        -0.00000002
  19         0.00000000
  20         0.00000001
  21        -0.00000006
  22         0.32380255
  23        -0.00000001
  24         0.00000001
  25         0.18105137
  26        -0.00000004
  27        -0.00000001
  28         0.00000000
  29         0.00000000
  30         0.00000001
  31        -0.00000006
  32         0.00000000
  33        -0.00000000
  34         0.00000000
  35        -0.00000000
  36         0.00000000
  37        -0.00000000
  38        -0.00000000
  39         0.00000000
  40        -0.00000004
  41         0.00000000
  42        -0.00000000
  43        -0.17356457
  44        -0.11716200
  45         0.17356458
  46         0.11716202
  47         0.00000000
  48         0.00000004
  49        -0.17356458
  50        -0.11716198
  51         0.17356457
  52         0.11716205
Sym=    17a  
Ene=    -0.7076
Spin= Alpha
Occup=    2.00000
   1         0.01000926
   2        -0.03344754
   3         0.05108276
   4         0.00000001
   5        -0.29861598
   6        -0.14638761
   7         0.00000001
   8        -0.12600867
   9        -0.13545095
  10         0.00000000
  11        -0.00000000
  12         0.00000000
  13         0.00000000
  14         0.25299570
  15        -0.00000000
  16        -0.00000000
  17         0.22944419
  18        -0.00000000
  19        -0.01000926
  20         0.03344754
  21        -0.05108276
  22        -0.00000001
  23        -0.29861598
  24         0.14638761
  25        -0.00000001
  26        -0.12600867
  27         0.13545095
  28        -0.00000000
  29         0.00000000
  30        -0.00000000
  31        -0.00000000
  32        -0.00000000
  33        -0.02593991
  34        -0.00000000
  35         0.00000000
  36         0.06451086
  37         0.00000000
  38         0.00000000
  39        -0.00489766
  40         0.00000000
  41        -0.14112032
  42        -0.07614826
  43         0.12337903
  44         0.09153846
  45         0.12337902
  46         0.09153846
  47         0.14112032
  48         0.07614826
  49        -0.12337902
  50        -0.09153846
  51        -0.12337903
  52        -0.09153846
Sym=    18a  
Ene=    -0.6933
Spin= Alpha
Occup=    1.49344
   1         0.01252576
   2        -0.02820896
   3        -0.00514755
   4         0.00000000
   5        -0.07365318
   6         0.12257516
   7         0.00000000
   8        -0.00154852
   9         0.08122576
  10        -0.02027108
  11         0.03231627
  12         0.07921012
  13         0.00000000
  14        -0.00000000
  15        -0.34786646
  16         0.00000000
  17        -0.00000000
  18        -0.22058886
  19         0.01252576
  20        -0.02820896
  21        -0.00514755
  22        -0.00000000
  23         0.07365319
  24         0.12257516
  25        -0.00000000
  26         0.00154852
  27         0.08122576
  28        -0.02077212
  29         0.09885251
  30        -0.20804766
  31        -0.29554310
  32        -0.00000000
  33         0.00000000
  34        -0.22713410
  35         0.00000000
  36        -0.00000000
  37         0.60347078
  38         0.00000000
  39        -0.00000000
  40         0.06244840
  41         0.07502351
  42         0.05870532
  43        -0.00767594
  44         0.00503983
  45        -0.00767594
  46         0.00503982
  47         0.07502351
  48         0.05870532
  49        -0.00767594
  50         0.00503983
  51        -0.00767594
  52         0.00503983
Sym=    19a  
Ene=    -0.0000
Spin= Alpha
Occup=    1.49714
   1         0.00000000
   2         0.00000000
   3        -0.00000001
   4        -0.05843805
   5         0.00000000
   6        -0.00000000
   7        -0.06914029
   8        -0.00000000
   9         0.00000000
  10        -0.00000000
  11        -0.00000000
  12         0.00000001
  13         0.17174747
  14         0.00000000
  15         0.00000000
  16         0.11916949
  17        -0.00000000
  18         0.00000000
  19        -0.00000000
  20        -0.00000000
  21         0.00000000
  22        -0.05843805
  23         0.00000000
  24        -0.00000000
  25        -0.06914029
  26         0.00000000
  27         0.00000000
  28         0.00000000
  29        -0.00000000
  30         0.00000000
  31        -0.00000000
  32        -0.26863764
  33         0.00000000
  34         0.00000000
  35         0.74323528
  36        -0.00000000
  37        -0.00000000
  38         0.27815829
  39         0.00000000
  40        -0.00000000
  41         0.00000000
  42         0.00000000
  43        -0.03693885
  44        -0.02197646
  45         0.03693885
  46         0.02197646
  47        -0.00000000
  48        -0.00000000
  49         0.03693885
  50         0.02197646
  51        -0.03693885
  52        -0.02197646
Sym=    20a  
Ene=     0.0000
Spin= Alpha
Occup=    1.00000
   1        -0.01829407
   2         0.03517368
   3         0.08131683
   4        -0.00000000
   5         0.07522005
   6        -0.07657738
   7        -0.00000000
   8         0.05437527
   9        -0.05058599
  10         0.00000000
  11        -0.00000000
  12        -0.00000000
  13         0.00000001
  14        -0.11269472
  15        -0.00000000
  16         0.00000000