[Molden Format]
[N_Atoms]
                    10
[Atoms] (AU)
C1          1      6           0.00000000     -2.42606819      2.17152208
C2          2      6           0.00000000      0.00000000      0.70256238
C3          3      6           0.00000000      2.42606819      2.17152208
S4          4     16           0.00000000      0.00000000     -2.36312142
H5          5      1           0.00000000     -2.11192012      4.19555104
H6          6      1           1.64685852     -3.54009954      1.66585027
H7          7      1          -1.64685852     -3.54009954      1.66585027
H8          8      1           0.00000000      2.11192012      4.19555104
H9          9      1          -1.64685852      3.54009954      1.66585027
H10        10      1           1.64685852      3.54009954      1.66585027
[5D]
[Charge] (Mulliken)
  0.000000000000000E+000
  0.000000000000000E+000
  0.000000000000000E+000
  0.000000000000000E+000
  0.000000000000000E+000
  0.000000000000000E+000
  0.000000000000000E+000
  0.000000000000000E+000
  0.000000000000000E+000
  0.000000000000000E+000
[GTO] (AU)
   1
   s   6
  0.304752488E+04  0.183473713E-02
  0.457369518E+03  0.140373228E-01
  0.103948685E+03  0.688426223E-01
  0.292101553E+02  0.232184443E+00
  0.928666296E+01  0.467941348E+00
  0.316392696E+01  0.362311985E+00
   s   3
  0.786827235E+01 -0.119332420E+00
  0.188128854E+01 -0.160854152E+00
  0.544249258E+00  0.114345644E+01
   s   1
  0.168714478E+00  0.100000000E+01
   p   3
  0.786827235E+01  0.689990666E-01
  0.188128854E+01  0.316423961E+00
  0.544249258E+00  0.744308291E+00
   p   1
  0.168714478E+00  0.100000000E+01
 
   2
   s   6
  0.304752488E+04  0.183473713E-02
  0.457369518E+03  0.140373228E-01
  0.103948685E+03  0.688426223E-01
  0.292101553E+02  0.232184443E+00
  0.928666296E+01  0.467941348E+00
  0.316392696E+01  0.362311985E+00
   s   3
  0.786827235E+01 -0.119332420E+00
  0.188128854E+01 -0.160854152E+00
  0.544249258E+00  0.114345644E+01
   s   1
  0.168714478E+00  0.100000000E+01
   p   3
  0.786827235E+01  0.689990666E-01
  0.188128854E+01  0.316423961E+00
  0.544249258E+00  0.744308291E+00
   p   1
  0.168714478E+00  0.100000000E+01
 
   3
   s   6
  0.304752488E+04  0.183473713E-02
  0.457369518E+03  0.140373228E-01
  0.103948685E+03  0.688426223E-01
  0.292101553E+02  0.232184443E+00
  0.928666296E+01  0.467941348E+00
  0.316392696E+01  0.362311985E+00
   s   3
  0.786827235E+01 -0.119332420E+00
  0.188128854E+01 -0.160854152E+00
  0.544249258E+00  0.114345644E+01
   s   1
  0.168714478E+00  0.100000000E+01
   p   3
  0.786827235E+01  0.689990666E-01
  0.188128854E+01  0.316423961E+00
  0.544249258E+00  0.744308291E+00
   p   1
  0.168714478E+00  0.100000000E+01
 
   4
   s   6
  0.219171000E+05  0.186924085E-02
  0.330149000E+04  0.142303065E-01
  0.754146000E+03  0.696962317E-01
  0.212711000E+03  0.238487108E+00
  0.679896000E+02  0.483307220E+00
  0.230515000E+02  0.338074154E+00
   s   6
  0.423735000E+03 -0.237677050E-02
  0.100710000E+03 -0.316930066E-01
  0.321599000E+02 -0.113317024E+00
  0.118079000E+02  0.560900118E-01
  0.463110000E+01  0.592255124E+00
  0.187025000E+01  0.455006095E+00
   s   3
  0.261584000E+01 -0.250373114E+00
  0.922167000E+00  0.669567631E-01
  0.341287000E+00  0.105450627E+01
   s   1
  0.117167000E+00  0.100000000E+01
   p   6
  0.423735000E+03  0.406100998E-02
  0.100710000E+03  0.306812999E-01
  0.321599000E+02  0.130451999E+00
  0.118079000E+02  0.327204999E+00
  0.463110000E+01  0.452850998E+00
  0.187025000E+01  0.256041999E+00
   p   3
  0.261584000E+01 -0.145104895E-01
  0.922167000E+00  0.310262776E+00
  0.341287000E+00  0.754482456E+00
   p   1
  0.117167000E+00  0.100000000E+01
 
   5
   s   3
  0.187311370E+02  0.334946043E-01
  0.282539437E+01  0.234726954E+00
  0.640121692E+00  0.813757326E+00
   s   1
  0.161277759E+00  0.100000000E+01
 
   6
   s   3
  0.187311370E+02  0.334946043E-01
  0.282539437E+01  0.234726954E+00
  0.640121692E+00  0.813757326E+00
   s   1
  0.161277759E+00  0.100000000E+01
 
   7
   s   3
  0.187311370E+02  0.334946043E-01
  0.282539437E+01  0.234726954E+00
  0.640121692E+00  0.813757326E+00
   s   1
  0.161277759E+00  0.100000000E+01
 
   8
   s   3
  0.187311370E+02  0.334946043E-01
  0.282539437E+01  0.234726954E+00
  0.640121692E+00  0.813757326E+00
   s   1
  0.161277759E+00  0.100000000E+01
 
   9
   s   3
  0.187311370E+02  0.334946043E-01
  0.282539437E+01  0.234726954E+00
  0.640121692E+00  0.813757326E+00
   s   1
  0.161277759E+00  0.100000000E+01
 
  10
   s   3
  0.187311370E+02  0.334946043E-01
  0.282539437E+01  0.234726954E+00
  0.640121692E+00  0.813757326E+00
   s   1
  0.161277759E+00  0.100000000E+01
 
[MO]
Sym=     1a  
Ene=   -92.2890
Spin= Alpha
Occup=    2.00000
   1         0.00000064
   2         0.00000163
   3         0.00000180
   4        -0.00000000
   5         0.00000164
   6        -0.00000309
   7         0.00000000
   8         0.00000102
   9        -0.00000193
  10        -0.00000490
  11         0.00002273
  12         0.00002541
  13        -0.00000000
  14         0.00000000
  15        -0.00003747
  16        -0.00000000
  17        -0.00000000
  18        -0.00002340
  19         0.00000064
  20         0.00000163
  21         0.00000180
  22         0.00000000
  23        -0.00000164
  24        -0.00000309
  25        -0.00000000
  26        -0.00000102
  27        -0.00000193
  28         0.99732355
  29         0.00993733
  30        -0.00222514
  31         0.00137480
  32         0.00000000
  33        -0.00000000
  34         0.00000022
  35         0.00000000
  36         0.00000000
  37         0.00000014
  38        -0.00000000
  39         0.00000000
  40         0.00000007
  41         0.00000011
  42         0.00000012
  43         0.00000068
  44         0.00000076
  45         0.00000068
  46         0.00000076
  47         0.00000011
  48         0.00000012
  49         0.00000068
  50         0.00000076
  51         0.00000068
  52         0.00000076
Sym=     2a  
Ene=   -11.3470
Spin= Alpha
Occup=    2.00000
   1         0.54684411
   2         0.01103142
   3         0.00057658
   4         0.00000000
   5         0.00117763
   6        -0.00062660
   7         0.00000000
   8         0.00073543
   9        -0.00039131
  10         0.62363053
  11         0.01298479
  12         0.00110774
  13         0.00000000
  14        -0.00000000
  15         0.00111948
  16         0.00000000
  17        -0.00000000
  18         0.00069912
  19         0.54684411
  20         0.01103142
  21         0.00057658
  22         0.00000000
  23        -0.00117763
  24        -0.00062660
  25        -0.00000000
  26        -0.00073543
  27        -0.00039131
  28         0.00008482
  29        -0.00064277
  30         0.00155492
  31         0.00067264
  32        -0.00000000
  33        -0.00000000
  34        -0.00077170
  35        -0.00000000
  36        -0.00000000
  37         0.00174982
  38         0.00000000
  39         0.00000000
  40         0.00097195
  41         0.00126388
  42         0.00141119
  43         0.00123015
  44         0.00137352
  45         0.00123015
  46         0.00137352
  47         0.00126388
  48         0.00141119
  49         0.00123015
  50         0.00137352
  51         0.00123015
  52         0.00137352
Sym=     3a  
Ene=   -11.3400
Spin= Alpha
Occup=    2.00000
   1        -0.70343886
   2        -0.01296953
   3         0.00061757
   4        -0.00000000
   5         0.00017566
   6         0.00000950
   7         0.00000000
   8         0.00010970
   9         0.00000593
  10         0.00000000
  11         0.00000000
  12         0.00000000
  13        -0.00000000
  14         0.00237315
  15         0.00000000
  16         0.00000000
  17         0.00148203
  18         0.00000000
  19         0.70343886
  20         0.01296953
  21        -0.00061757
  22        -0.00000000
  23         0.00017566
  24        -0.00000950
  25         0.00000000
  26         0.00010970
  27        -0.00000593
  28         0.00000000
  29        -0.00000000
  30         0.00000000
  31         0.00000000
  32         0.00000000
  33        -0.00020925
  34        -0.00000000
  35        -0.00000000
  36         0.00025840
  37         0.00000000
  38         0.00000000
  39         0.00014508
  40         0.00000000
  41        -0.00130376
  42        -0.00145572
  43        -0.00135322
  44        -0.00151095
  45        -0.00135322
  46        -0.00151095
  47         0.00130376
  48         0.00145572
  49         0.00135322
  50         0.00151095
  51         0.00135322
  52         0.00151095
Sym=     4a  
Ene=   -11.3320
Spin= Alpha
Occup=    2.00000
   1         0.44226982
   2         0.00724492
   3        -0.00140071
   4        -0.00000000
   5        -0.00118173
   6         0.00078526
   7        -0.00000000
   8        -0.00073799
   9         0.00049039
  10        -0.77532140
  11        -0.01318363
  12         0.00191787
  13         0.00000000
  14         0.00000000
  15         0.00089819
  16        -0.00000000
  17         0.00000000
  18         0.00056092
  19         0.44226982
  20         0.00724492
  21        -0.00140071
  22         0.00000000
  23         0.00118173
  24         0.00078526
  25         0.00000000
  26         0.00073799
  27         0.00049039
  28         0.00003642
  29         0.00012982
  30        -0.00145017
  31        -0.00062297
  32        -0.00000000
  33        -0.00000000
  34         0.00015718
  35         0.00000000
  36         0.00000000
  37        -0.00144901
  38        -0.00000000
  39         0.00000000
  40        -0.00079704
  41         0.00070446
  42         0.00078657
  43         0.00065618
  44         0.00073266
  45         0.00065618
  46         0.00073266
  47         0.00070446
  48         0.00078657
  49         0.00065618
  50         0.00073266
  51         0.00065618
  52         0.00073266
Sym=     5a  
Ene=    -9.0599
Spin= Alpha
Occup=    2.00000
   1         0.00016489
   2         0.00013686
   3         0.00014885
   4         0.00000000
   5         0.00014412
   6        -0.00030035
   7         0.00000000
   8         0.00009000
   9        -0.00018757
  10        -0.00163488
  11         0.00202659
  12         0.00229131
  13        -0.00000000
  14        -0.00000000
  15        -0.00324288
  16        -0.00000000
  17        -0.00000000
  18        -0.00202518
  19         0.00016489
  20         0.00013686
  21         0.00014885
  22         0.00000000
  23        -0.00014412
  24        -0.00030035
  25        -0.00000000
  26        -0.00009000
  27        -0.00018757
  28        -0.28069743
  29         1.03334353
  30         0.01057375
  31        -0.00511558
  32         0.00000000
  33         0.00000000
  34         0.00079349
  35        -0.00000000
  36         0.00000000
  37         0.00014111
  38         0.00000000
  39         0.00000000
  40         0.00006450
  41        -0.00000511
  42        -0.00000570
  43         0.00005621
  44         0.00006277
  45         0.00005621
  46         0.00006277
  47        -0.00000511
  48        -0.00000570
  49         0.00005621
  50         0.00006277
  51         0.00005621
  52         0.00006277
Sym=     6a  
Ene=    -6.6840
Spin= Alpha
Occup=    2.00000
   1         0.00035679
   2         0.00007646
   3         0.00007749
   4        -0.00000000
   5         0.00011231
   6        -0.00021430
   7        -0.00000000
   8         0.00007014
   9        -0.00013383
  10        -0.00109251
  11         0.00144108
  12         0.00162783
  13         0.00000000
  14         0.00000000
  15        -0.00203707
  16         0.00000000
  17         0.00000000
  18        -0.00127215
  19         0.00035679
  20         0.00007646
  21         0.00007749
  22        -0.00000000
  23        -0.00011231
  24        -0.00021430
  25         0.00000000
  26        -0.00007014
  27        -0.00013383
  28         0.00041551
  29        -0.00175845
  30         0.00022704
  31         0.00011364
  32         0.00000000
  33         0.00000000
  34         0.99517570
  35         0.00000000
  36         0.00000000
  37         0.01625315
  38        -0.00000000
  39        -0.00000000
  40        -0.00723645
  41        -0.00001696
  42        -0.00001894
  43         0.00002179
  44         0.00002433
  45         0.00002179
  46         0.00002433
  47        -0.00001696
  48        -0.00001894
  49         0.00002179
  50         0.00002433
  51         0.00002179
  52         0.00002433
Sym=     7a  
Ene=    -6.6827
Spin= Alpha
Occup=    2.00000
   1        -0.00005719
   2        -0.00004334
   3        -0.00004703
   4        -0.00000000
   5        -0.00004243
   6         0.00010855
   7        -0.00000000
   8        -0.00002650
   9         0.00006779
  10         0.00000000
  11        -0.00000000
  12        -0.00000000
  13        -0.00000000
  14         0.00063025
  15         0.00000000
  16        -0.00000000
  17         0.00039359
  18         0.00000000
  19         0.00005719
  20         0.00004334
  21         0.00004703
  22        -0.00000000
  23        -0.00004243
  24        -0.00010855
  25        -0.00000000
  26        -0.00002650
  27        -0.00006779
  28        -0.00000000
  29         0.00000000
  30        -0.00000000
  31         0.00000000
  32        -0.00000000
  33         0.99540706
  34        -0.00000000
  35        -0.00000000
  36         0.01615224
  37        -0.00000000
  38         0.00000000
  39        -0.00729554
  40         0.00000000
  41         0.00000074
  42         0.00000083
  43        -0.00001404
  44        -0.00001567
  45        -0.00001404
  46        -0.00001567
  47        -0.00000074
  48        -0.00000083
  49         0.00001404
  50         0.00001567
  51         0.00001404
  52         0.00001567
Sym=     8a  
Ene=    -6.6827
Spin= Alpha
Occup=    2.00000
   1        -0.00000000
   2        -0.00000000
   3        -0.00000000
   4         0.00002598
   5        -0.00000000
   6         0.00000000
   7         0.00001623
   8        -0.00000000
   9         0.00000000
  10         0.00000000
  11        -0.00000000
  12        -0.00000000
  13         0.00062270
  14         0.00000000
  15         0.00000000
  16         0.00038887
  17         0.00000000
  18         0.00000000
  19         0.00000000
  20         0.00000000
  21         0.00000000
  22         0.00002598
  23        -0.00000000
  24        -0.00000000
  25         0.00001623
  26        -0.00000000
  27        -0.00000000
  28        -0.00000000
  29         0.00000000
  30        -0.00000000
  31         0.00000000
  32         0.99540901
  33         0.00000000
  34        -0.00000000
  35         0.01614992
  36         0.00000000
  37        -0.00000000
  38        -0.00729684
  39        -0.00000000
  40         0.00000000
  41        -0.00000000
  42         0.00000000
  43         0.00000594
  44         0.00000663
  45        -0.00000594
  46        -0.00000663
  47         0.00000000
  48         0.00000000
  49        -0.00000594
  50        -0.00000663
  51         0.00000594
  52         0.00000663
Sym=     9a  
Ene=    -1.6418
Spin= Alpha
Occup=    2.00000
   1        -0.11526965
   2         0.13995172
   3         0.15828389
   4        -0.00000000
   5         0.03500902
   6        -0.01260270
   7         0.00000000
   8         0.02186311
   9        -0.00787038
  10        -0.12923354
  11         0.16316069
  12         0.18442270
  13        -0.00000000
  14         0.00000000
  15         0.02655569
  16         0.00000000
  17         0.00000000
  18         0.01658401
  19        -0.11526965
  20         0.13995172
  21         0.15828389
  22         0.00000000
  23        -0.03500902
  24        -0.01260270
  25        -0.00000000
  26        -0.02186311
  27        -0.00787038
  28         0.01621815
  29        -0.08011543
  30         0.13390362
  31         0.05816175
  32        -0.00000000
  33        -0.00000000
  34        -0.03324393
  35         0.00000000
  36        -0.00000000
  37         0.06713325
  38        -0.00000000
  39        -0.00000000
  40         0.03734853
  41         0.06528147
  42         0.07289014
  43         0.05925831
  44         0.06616497
  45         0.05925831
  46         0.06616497
  47         0.06528147
  48         0.07289014
  49         0.05925831
  50         0.06616497
  51         0.05925831
  52         0.06616497
Sym=    10a  
Ene=    -1.3414
Spin= Alpha
Occup=    2.00000
   1         0.13220197
   2        -0.16843839
   3        -0.19036222
   4        -0.00000000
   5         0.03665330
   6         0.01004337
   7        -0.00000000
   8         0.02288996
   9         0.00627208
  10         0.00000000
  11         0.00000000
  12        -0.00000000
  13         0.00000000
  14         0.12778354
  15        -0.00000000
  16         0.00000000
  17         0.07980075
  18        -0.00000000
  19        -0.13220197
  20         0.16843839
  21         0.19036222
  22         0.00000000
  23         0.03665330
  24        -0.01004337
  25        -0.00000000
  26         0.02288996
  27        -0.00627208
  28        -0.00000000
  29         0.00000000
  30        -0.00000000
  31        -0.00000000
  32        -0.00000000
  33        -0.02121273
  34         0.00000000
  35         0.00000000
  36         0.04948385
  37         0.00000000
  38         0.00000000
  39         0.02747616
  40        -0.00000000
  41        -0.07108497
  42        -0.07937005
  43        -0.09128435
  44        -0.10192370
  45        -0.09128435
  46        -0.10192370
  47         0.07108497
  48         0.07937005
  49         0.09128435
  50         0.10192370
  51         0.09128435
  52         0.10192370
Sym=    11a  
Ene=    -1.1213
Spin= Alpha
Occup=    2.00000
   1        -0.05381262
   2         0.07140449
   3         0.08065070
   4         0.00000000
   5        -0.02028568
   6         0.09204431
   7         0.00000000
   8        -0.01266839
   9         0.05748163
  10         0.08005545
  11        -0.11689905
  12        -0.13186421
  13         0.00000000
  14        -0.00000000
  15         0.16464130
  16        -0.00000000
  17         0.00000000
  18         0.10281841
  19        -0.05381262
  20         0.07140449
  21         0.08065070
  22         0.00000000
  23         0.02028568
  24         0.09204431
  25        -0.00000000
  26         0.01266839
  27         0.05748163
  28        -0.05129895
  29         0.24968015
  30        -0.45180916
  31        -0.19605825
  32        -0.00000000
  33        -0.00000000
  34         0.04581457
  35        -0.00000000
  36        -0.00000000
  37        -0.07171592
  38         0.00000000
  39        -0.00000000
  40        -0.04006518
  41         0.08136475
  42         0.09084796
  43         0.02875239
  44         0.03210353
  45         0.02875239
  46         0.03210353
  47         0.08136475
  48         0.09084796
  49         0.02875239
  50         0.03210353
  51         0.02875239
  52         0.03210353
Sym=    12a  
Ene=    -0.8055
Spin= Alpha
Occup=    2.00000
   1        -0.02431191
   2         0.03827820
   3         0.04313779
   4        -0.00000000
   5        -0.24700504
   6        -0.02009890
   7        -0.00000000
   8        -0.15425452
   9        -0.01255175
  10         0.10599241
  11        -0.16681117
  12        -0.18798952
  13        -0.00000000
  14        -0.00000000
  15        -0.13920219
  16         0.00000000
  17         0.00000000
  18        -0.08693169
  19        -0.02431191
  20         0.03827820
  21         0.04313779
  22        -0.00000000
  23         0.24700504
  24        -0.02009890
  25        -0.00000000
  26         0.15425452
  27        -0.01255175
  28         0.01722500
  29        -0.08178461
  30         0.17111068
  31         0.07413560
  32         0.00000000
  33         0.00000000
  34         0.02368532
  35        -0.00000000
  36        -0.00000000
  37        -0.06466139
  38        -0.00000000
  39        -0.00000000
  40        -0.03583811
  41        -0.01347504
  42        -0.01504558
  43         0.10126286
  44         0.11306522
  45         0.10126286
  46         0.11306522
  47        -0.01347504
  48        -0.01504558
  49         0.10126286
  50         0.11306522
  51         0.10126286
  52         0.11306522
Sym=    13a  
Ene=    -0.7923
Spin= Alpha
Occup=    2.00000
   1         0.00000000
   2        -0.00000000
   3         0.00000000
   4         0.23749855
   5         0.00000000
   6        -0.00000000
   7         0.14831772
   8         0.00000000
   9         0.00000000
  10         0.00000000
  11        -0.00000000
  12        -0.00000000
  13         0.24047390
  14        -0.00000000
  15         0.00000000
  16         0.15017582
  17        -0.00000000
  18        -0.00000000
  19        -0.00000000
  20        -0.00000000
  21         0.00000000
  22         0.23749855
  23         0.00000000
  24         0.00000000
  25         0.14831772
  26        -0.00000000
  27        -0.00000000
  28         0.00000000
  29        -0.00000000
  30         0.00000000
  31        -0.00000000
  32        -0.05316416
  33         0.00000000
  34        -0.00000000
  35         0.13239180
  36        -0.00000000
  37         0.00000000
  38         0.07345297
  39        -0.00000000
  40        -0.00000000
  41         0.00000000
  42        -0.00000000
  43         0.11024166
  44         0.12309052
  45        -0.11024166
  46        -0.12309052
  47        -0.00000000
  48        -0.00000000
  49        -0.11024166
  50        -0.12309052
  51         0.11024166
  52         0.12309052
Sym=    14a  
Ene=    -0.7166
Spin= Alpha
Occup=    2.00000
   1         0.00546003
   2        -0.01049579
   3        -0.01180245
   4         0.00000000
   5         0.03532728
   6         0.20633505
   7        -0.00000000
   8         0.02206187
   9         0.12885613
  10         0.06015968
  11        -0.09537044
  12        -0.10746927
  13        -0.00000000
  14         0.00000000
  15        -0.00395467
  16         0.00000000
  17        -0.00000000
  18        -0.00246969
  19         0.00546003
  20        -0.01049579
  21        -0.01180245
  22        -0.00000000
  23        -0.03532728
  24         0.20633505
  25        -0.00000000
  26        -0.02206187
  27         0.12885613
  28         0.04390423
  29        -0.20254430
  30         0.46928149
  31         0.20312447
  32         0.00000000
  33        -0.00000000
  34         0.07433617
  35        -0.00000000
  36         0.00000000
  37        -0.18628823
  38        -0.00000000
  39         0.00000000
  40        -0.10334788
  41         0.13664141
  42         0.15256721
  43        -0.04719886
  44        -0.05269997
  45        -0.04719886
  46        -0.05269997
  47         0.13664141
  48         0.15256721
  49        -0.04719886
  50        -0.05269997
  51        -0.04719886
  52        -0.05269997
Sym=    15a  
Ene=    -0.6922
Spin= Alpha
Occup=    2.00000
   1        -0.01222387
   2         0.02746812
   3         0.03084353
   4         0.00000000
   5        -0.03827319
   6         0.26450395
   7         0.00000000
   8        -0.02390159
   9         0.16518258
  10        -0.00000000
  11        -0.00000000
  12         0.00000000
  13         0.00000000
  14         0.21380875
  15         0.00000000
  16         0.00000000
  17         0.13352345
  18        -0.00000000
  19         0.01222387
  20        -0.02746812
  21        -0.03084353
  22        -0.00000000
  23        -0.03827319
  24        -0.26450395
  25        -0.00000000
  26        -0.02390159
  27        -0.16518258
  28        -0.00000000
  29         0.00000000
  30        -0.00000000
  31        -0.00000000
  32         0.00000000
  33        -0.07165787
  34        -0.00000000
  35        -0.00000000
  36         0.18105955
  37         0.00000000
  38        -0.00000000
  39         0.10043754
  40        -0.00000000
  41         0.15933728
  42         0.17790832
  43        -0.01377254
  44        -0.01537775
  45        -0.01377254
  46        -0.01537775
  47        -0.15933728
  48        -0.17790832
  49         0.01377254
  50         0.01537775
  51         0.01377254
  52         0.01537775
Sym=    16a  
Ene=    -0.6562
Spin= Alpha
Occup=    2.00000
   1        -0.00000000
   2         0.00000000
   3        -0.00000000
   4        -0.29144654
   5         0.00000000
   6         0.00000000
   7        -0.18200821
   8        -0.00000000
   9         0.00000000
  10         0.00000000
  11        -0.00000000
  12         0.00000000
  13         0.00000000
  14         0.00000000
  15        -0.00000000
  16         0.00000000
  17        -0.00000000
  18         0.00000000
  19         0.00000000
  20        -0.00000000
  21         0.00000000
  22         0.29144654
  23         0.00000000
  24        -0.00000000
  25         0.18200821
  26         0.00000000
  27        -0.00000000
  28         0.00000000
  29        -0.00000000
  30         0.00000000
  31         0.00000000
  32         0.00000000
  33        -0.00000000
  34         0.00000000
  35        -0.00000000
  36         0.00000000
  37        -0.00000000
  38        -0.00000000
  39         0.00000000
  40        -0.00000000
  41         0.00000000
  42         0.00000000
  43        -0.15362822
  44        -0.17153386
  45         0.15362822
  46         0.17153386
  47        -0.00000000
  48        -0.00000000
  49        -0.15362822
  50        -0.17153386
  51         0.15362822
  52         0.17153386
Sym=    17a  
Ene=    -0.5354
Spin= Alpha
Occup=    2.00000
   1         0.02637388
   2        -0.04729107
   3        -0.05321648
   4        -0.00000000
   5        -0.29512719
   6        -0.07591504
   7        -0.00000000
   8        -0.18430678
   9        -0.04740890
  10        -0.00000000
  11         0.00000000
  12        -0.00000000
  13         0.00000000
  14         0.26662989
  15         0.00000000
  16         0.00000000
  17         0.16651023
  18         0.00000000
  19        -0.02637388
  20         0.04729107
  21         0.05321648
  22         0.00000000
  23        -0.29512719
  24         0.07591504
  25         0.00000000
  26        -0.18430678
  27         0.04740890
  28         0.00000000
  29        -0.00000000
  30         0.00000000
  31         0.00000000
  32         0.00000000
  33        -0.06086946
  34         0.00000000
  35        -0.00000000
  36         0.15320151
  37        -0.00000000
  38        -0.00000000
  39         0.08498794
  40         0.00000000
  41        -0.10639651
  42        -0.11879721
  43         0.10557474
  44         0.11787966
  45         0.10557474
  46         0.11787966
  47         0.10639651
  48         0.11879721
  49        -0.10557474
  50        -0.11787966
  51        -0.10557474
  52        -0.11787966
Sym=    18a  
Ene=    -0.4859
Spin= Alpha
Occup=    2.00000
   1         0.02358642
   2        -0.04607573
   3        -0.05180370
   4        -0.00000000
   5        -0.07094360
   6         0.16065126
   7        -0.00000000
   8        -0.04430424
   9         0.10032663
  10        -0.01694897
  11         0.02942695
  12         0.03312555
  13         0.00000000
  14        -0.00000000
  15        -0.33095126
  16         0.00000000
  17         0.00000000
  18        -0.20667889
  19         0.02358642
  20        -0.04607573
  21        -0.05180370
  22        -0.00000000
  23         0.07094360
  24         0.16065126
  25        -0.00000000
  26         0.04430424
  27         0.10032663
  28        -0.01425862
  29         0.05527317
  30        -0.22060665
  31        -0.09512551
  32        -0.00000000
  33        -0.00000000
  34        -0.18481897
  35         0.00000000
  36         0.00000000
  37         0.45423940
  38         0.00000000
  39         0.00000000
  40         0.25205800
  41         0.11311329
  42         0.12629685
  43        -0.03033783
  44        -0.03387376
  45        -0.03033783
  46        -0.03387376
  47         0.11311329
  48         0.12629685
  49        -0.03033783
  50        -0.03387376
  51        -0.03033783
  52        -0.03387376
Sym=    19a  
Ene=    -0.4731
Spin= Alpha
Occup=    2.00000
   1        -0.00000000
   2        -0.00000000
   3         0.00000000
   4        -0.14531497
   5        -0.00000000
   6        -0.00000000
   7        -0.09074912
   8        -0.00000000
   9        -0.00000000
  10         0.00000000
  11        -0.00000000
  12        -0.00000000
  13         0.27016747
  14         0.00000000
  15         0.00000000
  16         0.16871944
  17         0.00000000
  18         0.00000000
  19        -0.00000000
  20         0.00000000
  21         0.00000000
  22        -0.14531497
  23        -0.00000000
  24        -0.00000000
  25        -0.09074912
  26        -0.00000000
  27        -0.00000000
  28         0.00000000
  29        -0.00000000
  30         0.00000000
  31         0.00000000
  32        -0.20452459
  33        -0.00000000
  34         0.00000000
  35         0.55245338
  36         0.00000000
  37        -0.00000000
  38         0.30622839
  39         0.00000000
  40        -0.00000000
  41        -0.00000000
  42        -0.00000000
  43        -0.09007893
  44        -0.10057778
  45         0.09007893
  46         0.10057778
  47        -0.00000000
  48        -0.00000000
  49         0.09007893
  50         0.10057778
  51        -0.09007893
  52        -0.10057778
Sym=    20a  
Ene=    -0.3926
Spin= Alpha
Occup=    2.00000
   1        -0.03470924
   2         0.07966496
   3         0.08943866
   4         0.00000000
   5         0.13462098
   6        -0.11188009
   7         0.00000000
   8         0.08407073
   9        -0.06986906
  10         0.00000000
  11         0.00000000
  12        -0.00000000
  13        -0.00000000
  14        -0.13278687
  15         0.00000000
  16        -0.00000000