   This run of MOLCAS is using the pymolcas driver

                             OPE
                             OPE          NMOL  CASOP  ENMOLC A   SO
                 OPE        NMOLC        AS  OP EN  MO LC     AS  OP
                OPENM       OL CA        SO  PE NM  OL CA     SOP EN
                OP EN      MO   LC       AS  OP ENMOL  CASO   PENMOL
                OP  EN     MO   LC       AS  OP EN     MO     LC ASO
               OP   E  NMOL  C  AS       OP  EN MO     LC     AS  OP
               OP  E   NMO   LC AS        OPEN  MO     LCASOP EN   M
               O  PEN   MO  LCA  SO
            OPE   NMO   L   CAS    OP
        OPENMOL  CASOP     ENMOL   CASOPE
     OPENMOLCA   SOPENMOLCASOPEN   MOLCASOPE
    OPENMOLCAS   OP           EN   MOL    CAS
    OPENMOLCAS       OP  ENM        O     LCA
    OPENMOLCAS    OPEN  MOLCASO     P  E  NMO
    OPENMOLCAS     OP               E  N  MOL
    OPENMOLCA   SO           PENM   O  L  CAS    OPEN    MO    LCAS
    OPENMOLCA   SOP           ENM   O  L  CAS   OP  EN  MOLC  AS   O
    OPENMOLCA   SOPE           NM      O  LCA   S      OP  EN MO
    OPENMOLC                AS         O  PEN   M      OL  CA  SOPE
    OPENMO        LCASOPE  NMOL        C  ASO   P      ENMOLC     AS
    OPE     NMO      LCA  SO     P     E   NM   OL  CA SO  PE N   MO
          OPENMOLCA            SOPE   NMO        LCAS  O    P  ENMO
     OPENMOLCASOPENMOLCASOPENMOLCASOPENMOLCA
        OPENMOLCASOPENMOLCASOPENMOLCASOPE
            OPENMOLCASOPENMOLCASOPENM
               OPENMOLCASOPENMOLCA        version: 23.06
                   OPENMOLCASO
                       OPE                tag: 105-gffc277a3d

 OpenMolcas is free software; you can redistribute it and/or modify it
 under the terms of the GNU Lesser General Public License version 2.1.
 OpenMolcas is distributed in the hope that it will be useful, but it
 is provided "as is" and without any express or implied warranties.
 For more details see the full text of the license in the file
 LICENSE or in <http://www.gnu.org/licenses/>.

                 Copyright (C) The OpenMolcas Authors
           For the author list and the recommended citation,
                   consult the file CONTRIBUTORS.md

           *************************************************
           * pymolcas version py2.25                       *
           *   build 835137438ff31f0b5f7e578ef8193798      *
           *   (after the EMIL interpreter by V. Veryazov) *
           *************************************************

configuration info
------------------
Host name: manganese.itc.univie.ac.at (Linux)
C Compiler ID: GNU
C flags: -std=gnu99
Fortran Compiler ID: Intel
Fortran flags: -fpp -i8 -heap-arrays
Definitions: _MOLCAS_;_I8_;_LINUX_
Parallel: OFF (GA=OFF)


   ----------------------------------------------------------------------
  |
  |           Project: MOLCAS
  |    Submitted from: /public/manganese/scratch/tmp/sascha.664377/master
  |      Scratch area: /public/manganese/scratch/tmp/sascha.664377/master
  |   Save outputs to: WORKDIR
  |            Molcas: /usr/license/openmolcas/v23.06
  |
  | Scratch area is NOT empty
  |
  |        MOLCASMEM = 2000
  |    MOLCAS_DRIVER = /usr/license/openmolcas/v23.06/pymolcas
  |    MOLCAS_NPROCS = 1
  |    MOLCAS_SOURCE = /usr/license/openmolcas/v23.06
  | MOLCAS_STRUCTURE = 0
  |
   ----------------------------------------------------------------------

++ ---------   Input file   ---------

&GATEWAY
COORD=MOLCAS.xyz
GROUP=NOSYM
BASIS=6-31G
AMFI
angmom
0 0 0
RICD
CDTHreshold=0.0001

&SEWARD

&RASSCF
SPIN=1
NACTEL=6 0 0
INACTIVE=17
RAS2=5
ITERATIONS=200,100
CIROOT=5 5 1
THRS=0.000000010000 0.000100000000 0.000100000000

&CASPT2
SHIFT=0.0
IMAGINARY= 0.100
IPEASHIFT= 0.25
MAXITER=120
MULTISTATE= 3 1 2 3
OUTPUT=BRIEF
PRWF=0.1

>>> COPY MOLCAS.JobMix MOLCAS.1.JobIph

&RASSCF
SPIN=2
NACTEL=5 0 0
INACTIVE=17
RAS2=5
ITERATIONS=200,100
CIROOT=2 2 1
THRS=0.000000010000 0.000100000000 0.000100000000

&CASPT2
SHIFT=0.0
IMAGINARY= 0.100
IPEASHIFT= 0.25
MAXITER=120
MULTISTATE= 1 1
OUTPUT=BRIEF
PRWF=0.1

>>> COPY MOLCAS.JobMix MOLCAS.2.JobIph

&RASSCF
SPIN=3
NACTEL=6 0 0
INACTIVE=17
RAS2=5
ITERATIONS=200,100
CIROOT=4 4 1
THRS=0.000000010000 0.000100000000 0.000100000000

&CASPT2
SHIFT=0.0
IMAGINARY= 0.100
IPEASHIFT= 0.25
MAXITER=120
MULTISTATE= 2 1 2
OUTPUT=BRIEF
PRWF=0.1

>>> COPY MOLCAS.JobMix MOLCAS.3.JobIph

&RASSCF
SPIN=4
NACTEL=5 0 0
INACTIVE=17
RAS2=5
ITERATIONS=200,100
CIROOT=2 2 1
THRS=0.000000010000 0.000100000000 0.000100000000

&CASPT2
SHIFT=0.0
IMAGINARY= 0.100
IPEASHIFT= 0.25
MAXITER=120
MULTISTATE= 1 1
OUTPUT=BRIEF
PRWF=0.1

>>> COPY MOLCAS.JobMix MOLCAS.4.JobIph

>>> COPY MOLCAS.1.JobIph JOB001

&RASSI
NROFJOBIPHS
1 3
1 2 3
MEIN
EJOB
TRD1

>>> COPY MOLCAS.rassi.h5 MOLCAS.rassi.1.h5

>>> COPY MOLCAS.2.JobIph JOB001

&RASSI
NROFJOBIPHS
1 1
1
MEIN
EJOB
TRD1

>>> COPY MOLCAS.rassi.h5 MOLCAS.rassi.2.h5

>>> COPY MOLCAS.3.JobIph JOB001

&RASSI
NROFJOBIPHS
1 2
1 2
MEIN
EJOB
TRD1

>>> COPY MOLCAS.rassi.h5 MOLCAS.rassi.3.h5

>>> COPY MOLCAS.4.JobIph JOB001

&RASSI
NROFJOBIPHS
1 1
1
MEIN
EJOB
TRD1

>>> COPY MOLCAS.rassi.h5 MOLCAS.rassi.4.h5

>>> COPY MOLCAS.1.JobIph JOB001

>>> COPY MOLCAS.2.JobIph JOB002

>>> COPY MOLCAS.3.JobIph JOB003

>>> COPY MOLCAS.4.JobIph JOB004

&RASSI
NROFJOBIPHS
4 3 1 2 1
1 2 3
1
1 2
1
MEIN
EJOB
SPINORBIT
SOCOUPLING=0.0d0
EJOB

>>> COPY MOLCAS.rassi.h5 MOLCAS.rassi.h5.bak

>>> COPY MOLCAS.1.JobIph JOB001

>>> COPY MOLCAS.3.JobIph JOB002

&RASSI
NROFJOBIPHS
2 3 2
1 2 3
1 2
MEIN
EJOB
TRD1

>>> COPY MOLCAS.rassi.h5 MOLCAS.rassi.trd1.h5

>>> COPY MOLCAS.rassi.h5.bak MOLCAS.rassi.h5

>>> COPY MOLCAS.2.JobIph JOB001

>>> COPY MOLCAS.4.JobIph JOB002

&RASSI
NROFJOBIPHS
2 1 1
1
1
MEIN
EJOB
TRD1

>>> COPY MOLCAS.rassi.h5 MOLCAS.rassi.trd2.h5

>>> COPY MOLCAS.rassi.h5.bak MOLCAS.rassi.h5

>>> COPY MOLCAS.rassi.h5.bak MOLCAS.rassi.h5

-- ----------------------------------

--- Start Module: gateway at Wed May 29 11:47:49 2024 ---
 
()()()()()()()()()()()()()()()()()()()()()()()()()()()()()()()()()()()()()()()()()()()()()()()()()()

                                              &GATEWAY

                                   only a single process is used
                       available to each process: 2.0 GB of memory, 1 thread?
                                            pid: 3310500
()()()()()()()()()()()()()()()()()()()()()()()()()()()()()()()()()()()()()()()()()()()()()()()()()()
 
 
++    Symmetry information:
      ---------------------
 
                    Character Table for C1 
 
                             E  
                    a        1  x, y, xy, Rz, z, xz, Ry, yz, Rx, I
--
 
 
++    Basis set information:
      ----------------------
 
 
      Basis set label: C.6-31G.........
 
      Electronic valence basis set:
      ------------------
      Associated Effective Charge   6.000000 au
      Associated Actual Charge      6.000000 au
      Nuclear Model: Point charge
 
      Shell  nPrim  nBasis  Cartesian Spherical Contaminant
         s      10       3        X                  
         p       4       2        X                  
 
 
      Basis set label: S.6-31G.........
 
      Electronic valence basis set:
      ------------------
      Associated Effective Charge  16.000000 au
      Associated Actual Charge     16.000000 au
      Nuclear Model: Point charge
 
      Shell  nPrim  nBasis  Cartesian Spherical Contaminant
         s      16       4        X                  
         p      10       3        X                  
 
 
      Basis set label: H.6-31G.........
 
      Electronic valence basis set:
      ------------------
      Associated Effective Charge   1.000000 au
      Associated Actual Charge      1.000000 au
      Nuclear Model: Point charge
 
      Shell  nPrim  nBasis  Cartesian Spherical Contaminant
         s       4       2        X                  
--
 
 
++    Molecular structure info:
      -------------------------
 
                    ************************************************ 
                    **** Cartesian Coordinates / Bohr, Angstrom **** 
                    ************************************************ 
 
     Center  Label                x              y              z                     x              y              z
        1      C1               0.000000      -2.426068       2.171522              0.000000      -1.283820       1.149120
        2      C2               0.000000       0.000000       0.702562              0.000000       0.000000       0.371780
        3      C3               0.000000       2.426068       2.171522              0.000000       1.283820       1.149120
        4      S4               0.000000       0.000000      -2.363121              0.000000       0.000000      -1.250510
        5      H5               0.000000      -2.111920       4.195551              0.000000      -1.117580       2.220190
        6      H6               1.646859      -3.540100       1.665850              0.871480      -1.873340       0.881530
        7      H7              -1.646859      -3.540100       1.665850             -0.871480      -1.873340       0.881530
        8      H8               0.000000       2.111920       4.195551              0.000000       1.117580       2.220190
        9      H9              -1.646859       3.540100       1.665850             -0.871480       1.873340       0.881530
       10      H10              1.646859       3.540100       1.665850              0.871480       1.873340       0.881530
 
                    *************************************** 
                    *    InterNuclear Distances / Bohr    * 
                    *************************************** 
 
               1 C1            2 C2            3 C3            4 S4            5 H5            6 H6    
    1 C1       0.000000
    2 C2       2.836133        0.000000
    3 C3       4.852136        2.836133        0.000000
    4 S4       5.142840        3.065684        5.142840        0.000000
    5 H5       2.048263        4.081810        4.968906        6.890311        0.000000
    6 H6       2.051564        4.021489        6.209912        5.610442        3.339345        0.000000
    7 H7       2.051564        4.021489        6.209912        5.610442        3.339345        3.293717
    8 H8       4.968906        4.081810        2.048263        6.890311        4.223840        6.407562
    9 H9       6.209912        4.021489        2.051564        5.610442        6.407562        7.808828
   10 H10      6.209912        4.021489        2.051564        5.610442        6.407562        7.080199
 
               7 H7            8 H8            9 H9           10 H10   
    7 H7       0.000000
    8 H8       6.407562        0.000000
    9 H9       7.080199        3.339345        0.000000
   10 H10      7.808828        3.339345        3.293717        0.000000
 
                    ******************************************* 
                    *    InterNuclear Distances / Angstrom    * 
                    ******************************************* 
 
               1 C1            2 C2            3 C3            4 S4            5 H5            6 H6    
    1 C1       0.000000
    2 C2       1.500817        0.000000
    3 C3       2.567640        1.500817        0.000000
    4 S4       2.721473        1.622290        2.721473        0.000000
    5 H5       1.083894        2.160001        2.629432        3.646196        0.000000
    6 H6       1.085641        2.128080        3.286144        2.968918        1.767105        0.000000
    7 H7       1.085641        2.128080        3.286144        2.968918        1.767105        1.742960
    8 H8       2.629432        2.160001        1.083894        3.646196        2.235160        3.390736
    9 H9       3.286144        2.128080        1.085641        2.968918        3.390736        4.132254
   10 H10      3.286144        2.128080        1.085641        2.968918        3.390736        3.746680
 
               7 H7            8 H8            9 H9           10 H10   
    7 H7       0.000000
    8 H8       3.390736        0.000000
    9 H9       3.746680        1.767105        0.000000
   10 H10      4.132254        1.767105        1.742960        0.000000
 
                    ************************************** 
                    *    Valence Bond Angles / Degree    * 
                    ************************************** 
                          Atom centers                 Phi
                      2 C2       1 C1       5 H5       112.37
                      2 C2       1 C1       6 H6       109.68
                      2 C2       1 C1       7 H7       109.68
                      5 H5       1 C1       6 H6       109.08
                      5 H5       1 C1       7 H7       109.08
                      6 H6       1 C1       7 H7       106.78
                      1 C1       2 C2       3 C3       117.61
                      2 C2       3 C3       8 H8       112.37
                      2 C2       3 C3       9 H9       109.68
                      2 C2       3 C3      10 H10      109.68
                      8 H8       3 C3       9 H9       109.08
                      8 H8       3 C3      10 H10      109.08
                      9 H9       3 C3      10 H10      106.78
 
           ***************************************************************
           *              Valence Dihedral Angles / Degree               *
           ***************************************************************
                    Atom centers                       Phi1     Phi2     Theta 
           3 C3       2 C2       1 C1       5 H5        117.61   112.37     0.00
           3 C3       2 C2       1 C1       6 H6        117.61   109.68  -121.51
           3 C3       2 C2       1 C1       7 H7        117.61   109.68   121.51
           1 C1       2 C2       3 C3       8 H8        117.61   112.37     0.00
           1 C1       2 C2       3 C3       9 H9        117.61   109.68  -121.51
           1 C1       2 C2       3 C3      10 H10       117.61   109.68   121.51
--
 
 
            Nuclear Potential Energy            153.45474550 au
 
--- Stop Module: gateway at Wed May 29 11:47:50 2024 /rc=_RC_ALL_IS_WELL_ ---

--- Start Module: seward at Wed May 29 11:47:50 2024 ---
 
()()()()()()()()()()()()()()()()()()()()()()()()()()()()()()()()()()()()()()()()()()()()()()()()()()

                                              &SEWARD

                                   only a single process is used
                       available to each process: 2.0 GB of memory, 1 thread?
                                            pid: 3310503
()()()()()()()()()()()()()()()()()()()()()()()()()()()()()()()()()()()()()()()()()()()()()()()()()()
 
               SEWARD will generate:
                  Multipole Moment integrals up to order  2
                  Kinetic Energy integrals
                  Nuclear Attraction integrals (point charge)
                  One-Electron Hamiltonian integrals
                  Velocity integrals
                  Orbital angular momentum around ( 0.0000  0.0000  0.0000 )
                  Velocity quadrupole around ( 0.0000  0.0000  0.0022 )
                  Atomic mean-field integrals
                  RI decomposed two-electron repulsion integrals stored Cholesky style
                   - acCD auxiliary basis
                   - CD Threshold:   0.10E-03
 
                   Integrals are discarded if absolute value <: 0.10E-13
                   Integral cutoff threshold is set to       <: 0.10E-15
 
            Nuclear Potential Energy            153.45474550 au
 
 
      Basis set specifications :
      Symmetry species         a  
      Basis functions           52
 
 
      Input file to MOLDEN was generated!
 
--- Stop Module: seward at Wed May 29 11:47:51 2024 /rc=_RC_ALL_IS_WELL_ ---
--- Module seward spent 1 second ---

*** symbolic link created: INPORB -> MOLCAS.GssOrb
--- Start Module: rasscf at Wed May 29 11:47:51 2024 ---
 
()()()()()()()()()()()()()()()()()()()()()()()()()()()()()()()()()()()()()()()()()()()()()()()()()()

                                              &RASSCF

                                   only a single process is used
                       available to each process: 2.0 GB of memory, 1 thread?
                                            pid: 3310540
()()()()()()()()()()()()()()()()()()()()()()()()()()()()()()()()()()()()()()()()()()()()()()()()()()
 
 
      Header of the ONEINT file:
      --------------------------
      
      Integrals generated by Gateway/Seward, Wed May 29 11:47:50 2024
 
 
      OrdInt status: non-squared
 
 
      Cartesian coordinates in Angstrom:
      -----------------------------------------------------
      No.  Label        X            Y            Z        
      -----------------------------------------------------
       1   C1         0.00000000  -1.28382000   1.14912000
       2   C2         0.00000000   0.00000000   0.37178000
       3   C3         0.00000000   1.28382000   1.14912000
       4   S4         0.00000000   0.00000000  -1.25051000
       5   H5         0.00000000  -1.11758000   2.22019000
       6   H6         0.87148000  -1.87334000   0.88153000
       7   H7        -0.87148000  -1.87334000   0.88153000
       8   H8         0.00000000   1.11758000   2.22019000
       9   H9        -0.87148000   1.87334000   0.88153000
      10   H10        0.87148000   1.87334000   0.88153000
      -----------------------------------------------------
      Nuclear repulsion energy =  153.45474550
 
++    Wave function specifications:
      -----------------------------
 
      Number of closed shell electrons          34
      Number of electrons in active shells       6
      Max number of holes in RAS1 space          0
      Max nr of electrons in RAS3 space          0
      Number of inactive orbitals               17
      Number of active orbitals                  5
      Number of secondary orbitals              30
      Spin quantum number                      0.0
      State symmetry                             1
--
 
++    Orbital specifications:
      -----------------------
 
      Symmetry species                           1
                                                 a
      Frozen orbitals                            0
      Inactive orbitals                         17
      Active orbitals                            5
      RAS1 orbitals                              0
      RAS2 orbitals                              5
      RAS3 orbitals                              0
      Secondary orbitals                        30
      Deleted orbitals                           0
      Number of basis functions                 52
--
 
++    CI expansion specifications:
      ----------------------------
 
      Number of CSFs                            50
      Number of determinants                    55
      Number of root(s) required                 5
      Root chosen for geometry opt.              5
      CI roots used                              1     2     3     4     5
      weights                                0.200 0.200 0.200 0.200 0.200
      highest root included in the CI            5
      max. size of the explicit Hamiltonian     50
--
 
++    Optimization specifications:
      ----------------------------
 
      RASSCF algorithm: LK RI/DF
      Maximum number of macro iterations       200
      Maximum number of SX iterations          100
      Threshold for RASSCF energy            0.100E-07
      Threshold for max MO rotation          0.100E-03
      Threshold for max BLB element          0.100E-03
      Level shift parameter                  0.500E+00
      Make Quasi-Newton update
--
 
      Orbitals from runfile: guessorb orbitals
      The MO-coefficients are taken from guessorb on runfile
 
      Total molecular charge    0.00
 
      ************************************************************************************************************************
      *                                                                                                                      *
      *                                            Wave function control section                                             *
      *                                                                                                                      *
      ************************************************************************************************************************
 
 
                                         RASSCF iterations: Energy and convergence statistics
                                         ----------------------------------------------------
 
      Iter CI   SX   CI       RASSCF       Energy    max ROT     max BLB   max BLB  Level Ln srch  Step   QN   Walltime
          iter iter root      energy       change     param      element    value   shift minimum  type update hh:mm:ss
 Nr of preliminary CI iterations:   1
        1   1  100    0  -514.08489955    0.00E+00  -0.43E+00*  10  50 1 -0.25E+00*  0.26   0.00    SX    NO    0:00:00
        2   1  100    0  -514.31331200   -0.23E+00* -0.15E+00*  18  51 1 -0.48E-01*  0.27   0.00    SX    NO    0:00:00
        3   1   20    0  -514.34568866   -0.32E-01* -0.64E-01*  12  24 1 -0.25E-01*  0.24   0.00    SX    NO    0:00:00
        4   1   11    0  -514.35261129   -0.69E-02* -0.29E-01*  17  23 1 -0.11E-01*  0.24   0.00    SX    NO    0:00:00
        5   1   10    0  -514.35402672   -0.14E-02* -0.21E-01*  12  24 1 -0.60E-02*  0.24   1.76    LS   YES    0:00:00
        6   1    9    0  -514.35441824   -0.39E-03* -0.92E-02*  12  24 1 -0.24E-02*  0.24   1.26    QN   YES    0:00:00
        7   1    8    0  -514.35448099   -0.63E-04* -0.36E-02*  11  22 1  0.83E-03*  0.24   1.24    QN   YES    0:00:00
        8   1    8    0  -514.35449178   -0.11E-04*  0.14E-02*  10  30 1  0.33E-03*  0.24   1.31    QN   YES    0:00:00
        9   1    7    0  -514.35449350   -0.17E-05*  0.56E-03*  12  24 1  0.17E-03*  0.24   1.25    QN   YES    0:00:00
       10   1    7    0  -514.35449380   -0.30E-06*  0.27E-03*  11  22 1 -0.65E-04   0.24   1.48    LS   YES    0:00:00
       11   1    7    0  -514.35449382   -0.24E-07*  0.11E-03*  10  30 1 -0.79E-04   0.24   0.82    QN   YES    0:00:00
       12   1    6    0  -514.35449386   -0.38E-07* -0.75E-04   10  30 1 -0.27E-04   0.24   1.51    QN   YES    0:00:00
       13   1    5    0  -514.35449387   -0.72E-08   0.22E-04   11  22 1  0.57E-05   0.24   1.08    QN   YES    0:00:00
      Convergence after 13 iterations
       14   1    5    0  -514.35449387   -0.88E-09   0.22E-04   18  51 1  0.28E-05   0.24   1.08    QN   YES    0:00:00
 
      ************************************************************************************************************************
                                                      Wave function printout:
                       occupation of active orbitals, and spin coupling of open shells (u,d: Spin up or down)
      ************************************************************************************************************************
 
      Note: transformation to natural orbitals
      has been made, which may change the order of the CSFs.
 
      printout of CI-coefficients larger than  0.05 for root  1
      energy=    -514.553373
      conf/sym  11111     Coeff  Weight
             1  22200  -0.86980 0.75655
             7  2u2d0  -0.45952 0.21116
            17  u220d   0.09910 0.00982
            23  20220   0.09342 0.00873
            30  ud2ud  -0.05520 0.00305
            38  02202   0.06127 0.00375
            41  uu2dd  -0.05368 0.00288
 
      printout of CI-coefficients larger than  0.05 for root  2
      energy=    -514.454314
      conf/sym  11111     Coeff  Weight
             2  22ud0  -0.99310 0.98624
            39  02ud2   0.07988 0.00638
            42  uud2d  -0.05194 0.00270
 
      printout of CI-coefficients larger than  0.05 for root  3
      energy=    -514.304677
      conf/sym  11111     Coeff  Weight
             1  22200  -0.42493 0.18056
             3  22020  -0.07765 0.00603
             7  2u2d0   0.85827 0.73664
            17  u220d   0.25166 0.06333
            44  u022d   0.08372 0.00701
 
      printout of CI-coefficients larger than  0.05 for root  4
      energy=    -514.269118
      conf/sym  11111     Coeff  Weight
            15  u22d0   0.99460 0.98923
            29  ud220   0.07312 0.00535
            47  0u22d   0.06501 0.00423
 
      printout of CI-coefficients larger than  0.05 for root  5
      energy=    -514.190987
      conf/sym  11111     Coeff  Weight
             3  22020   0.95498 0.91198
             7  2u2d0   0.07324 0.00536
            20  u202d   0.19740 0.03897
            23  20220  -0.17949 0.03222
            35  02220  -0.06786 0.00461
 
      Natural orbitals and occupation numbers for root  1
      sym 1:   1.973738   1.910617   1.998913   0.090628   0.026104
 
      Natural orbitals and occupation numbers for root  2
      sym 1:   1.981517   1.995450   1.000000   1.004056   0.018977
 
      Natural orbitals and occupation numbers for root  3
      sym 1:   1.938776   1.567304   1.986392   0.446187   0.061341
 
      Natural orbitals and occupation numbers for root  4
      sym 1:   0.996105   1.994866   1.998850   1.004130   0.006049
 
      Natural orbitals and occupation numbers for root  5
      sym 1:   1.980654   1.919521   0.092308   1.994330   0.013187
 
      ************************************************************************************************************************
      *                                                                                                                      *
      *                                                    Final results                                                     *
      *                                                                                                                      *
      ************************************************************************************************************************
 
 
++    Wave function specifications:
      -----------------------------
 
      Number of closed shell electrons          34
      Number of electrons in active shells       6
      Max number of holes in RAS1 space          0
      Max nr of electrons in RAS3 space          0
      Number of inactive orbitals               17
      Number of active orbitals                  5
      Number of secondary orbitals              30
      Spin quantum number                      0.0
      State symmetry                             1
--
 
++    Orbital specifications:
      -----------------------
 
      Symmetry species                           1
                                                 a
      Frozen orbitals                            0
      Inactive orbitals                         17
      Active orbitals                            5
      RAS1 orbitals                              0
      RAS2 orbitals                              5
      RAS3 orbitals                              0
      Secondary orbitals                        30
      Deleted orbitals                           0
      Number of basis functions                 52
--
 
++    CI expansion specifications:
      ----------------------------
 
      Number of CSFs                            50
      Number of determinants                    55
      Number of root(s) required                 5
      CI roots used                              1     2     3     4     5
      weights                                0.200 0.200 0.200 0.200 0.200
      highest root included in the CI            5
      Root passed to geometry opt.               5
--
 
++    Final optimization conditions:
      ------------------------------
 
      Average CI energy                            -514.35449387
      RASSCF energy for state  5                   -514.19098669
      Super-CI energy                                -0.00000000
      RASSCF energy change                           -0.00000000
      Max change in MO coefficients               0.452E-04
      Max non-diagonal density matrix element     0.222E-04
      Maximum BLB matrix element                  0.279E-05
      (orbital pair  18,  51 in symmetry   1)
      Norm of electronic gradient            0.225E+00
--
 
 
      Final state energy(ies):
      ------------------------
 
::    RASSCF root number  1 Total energy:   -514.55337320
::    RASSCF root number  2 Total energy:   -514.45431446
::    RASSCF root number  3 Total energy:   -514.30467699
::    RASSCF root number  4 Total energy:   -514.26911801
::    RASSCF root number  5 Total energy:   -514.19098669
 
++    Molecular orbitals:
      -------------------
 
      Pseudonatural active orbitals and approximate occupation numbers
 
 
 
 
      Molecular orbitals for symmetry species 1: a  
 
 
      Orbital                 1         2         3         4         5         6         7         8         9        10
      Energy           -91.9551  -11.2636  -11.2384  -11.2384   -8.9752   -6.6570   -6.6532   -6.6521   -1.1129   -0.9649
      Occ. No.           2.0000    2.0000    2.0000    2.0000    2.0000    2.0000    2.0000    2.0000    2.0000    2.0000
 
     1 C1     1s         0.0000   -0.0125   -0.7045    0.7042    0.0000    0.0000    0.0000    0.0000   -0.0918    0.1398
     2 C1     2s         0.0000    0.0001   -0.0187    0.0181   -0.0000    0.0001    0.0004    0.0000    0.1739   -0.2671
     3 C1     *s         0.0003   -0.0031    0.0145   -0.0126   -0.0010   -0.0017   -0.0029   -0.0000    0.1566   -0.2690
     4 C1     2px       -0.0000   -0.0000   -0.0000    0.0000   -0.0000    0.0000   -0.0000   -0.0001    0.0000   -0.0000
     5 C1     *px        0.0000    0.0000    0.0000   -0.0000    0.0000    0.0000   -0.0000   -0.0001   -0.0000    0.0000
     6 C1     2py        0.0000    0.0002   -0.0001   -0.0000   -0.0001   -0.0002    0.0000    0.0000    0.0542    0.0196
     7 C1     *py        0.0002   -0.0018    0.0009   -0.0004   -0.0005   -0.0010   -0.0012   -0.0000    0.0104    0.0103
     8 C1     2pz       -0.0001   -0.0000    0.0001   -0.0001    0.0001    0.0002   -0.0001    0.0000   -0.0372    0.0083
     9 C1     *pz        0.0005    0.0004   -0.0009    0.0004   -0.0013   -0.0012    0.0024   -0.0000   -0.0111    0.0006
    10 C2     1s        -0.0000   -0.9960    0.0000   -0.0178   -0.0003   -0.0006   -0.0000   -0.0000   -0.1451   -0.0000
    11 C2     2s         0.0001   -0.0255    0.0000   -0.0009   -0.0002   -0.0001   -0.0000   -0.0000    0.2840    0.0000
    12 C2     *s        -0.0002    0.0167   -0.0000    0.0055    0.0007    0.0007    0.0000    0.0000    0.2074    0.0000
    13 C2     2px        0.0000    0.0000   -0.0000   -0.0000    0.0000    0.0000   -0.0000   -0.0001    0.0000   -0.0000
    14 C2     *px       -0.0000   -0.0000    0.0000    0.0000   -0.0000   -0.0000    0.0000    0.0003    0.0000   -0.0000
    15 C2     2py       -0.0000   -0.0000   -0.0002   -0.0000   -0.0000    0.0000    0.0001   -0.0000   -0.0000    0.1641
    16 C2     *py        0.0000   -0.0000    0.0041    0.0000    0.0000    0.0000   -0.0049    0.0000    0.0000    0.0413
    17 C2     2pz       -0.0001    0.0013    0.0000   -0.0002   -0.0001   -0.0010   -0.0000   -0.0000    0.0001    0.0000
    18 C2     *pz       -0.0007   -0.0003   -0.0000    0.0020    0.0023    0.0043    0.0000    0.0000   -0.0155    0.0000
    19 C3     1s         0.0000   -0.0125    0.7044    0.7044    0.0000    0.0000   -0.0000    0.0000   -0.0918   -0.1398
    20 C3     2s         0.0000    0.0001    0.0187    0.0181   -0.0000    0.0001   -0.0004    0.0000    0.1739    0.2671
    21 C3     *s         0.0003   -0.0031   -0.0145   -0.0126   -0.0010   -0.0017    0.0029   -0.0000    0.1566    0.2690
    22 C3     2px       -0.0000   -0.0000   -0.0000   -0.0000   -0.0000   -0.0000   -0.0000   -0.0001    0.0000    0.0000
    23 C3     *px        0.0000   -0.0000   -0.0000   -0.0000    0.0000    0.0000    0.0000   -0.0001    0.0000    0.0000
    24 C3     2py       -0.0000   -0.0002   -0.0001    0.0000    0.0001    0.0002    0.0000    0.0000   -0.0542    0.0196
    25 C3     *py       -0.0002    0.0018    0.0009    0.0004    0.0005    0.0010   -0.0012    0.0000   -0.0104    0.0103
    26 C3     2pz       -0.0001   -0.0000   -0.0001   -0.0001    0.0001    0.0002    0.0001   -0.0000   -0.0372   -0.0083
    27 C3     *pz        0.0005    0.0004    0.0009    0.0004   -0.0013   -0.0012   -0.0024    0.0000   -0.0111   -0.0006
    28 S4     1s         0.9967    0.0000    0.0000   -0.0000   -0.2819    0.0029   -0.0000    0.0000    0.0361    0.0000
    29 S4     2s         0.0123   -0.0002    0.0000   -0.0000    1.0306   -0.0106    0.0000   -0.0000   -0.1661   -0.0000
    30 S4     3s        -0.0039    0.0004    0.0000   -0.0003    0.0213    0.0028    0.0000    0.0000    0.3375    0.0000
    31 S4     *s         0.0019   -0.0038   -0.0000    0.0007   -0.0057    0.0001   -0.0000    0.0000    0.0731    0.0000
    32 S4     2px       -0.0000    0.0000    0.0000   -0.0000   -0.0000   -0.0000    0.0000    0.9933   -0.0000    0.0000
    33 S4     3px        0.0000   -0.0000    0.0000    0.0000    0.0000   -0.0000    0.0000    0.0220    0.0000   -0.0000
    34 S4     *px        0.0000    0.0000   -0.0000   -0.0000    0.0000    0.0000   -0.0000   -0.0046    0.0000   -0.0000
    35 S4     2py       -0.0000   -0.0000   -0.0000   -0.0000   -0.0000   -0.0000    0.9931   -0.0000    0.0000   -0.0174
    36 S4     3py       -0.0000    0.0000   -0.0001   -0.0000   -0.0000   -0.0000    0.0229   -0.0000   -0.0000    0.0418
    37 S4     *py       -0.0000   -0.0000   -0.0001   -0.0000   -0.0000    0.0000   -0.0050   -0.0000   -0.0000    0.0099
    38 S4     2pz        0.0001    0.0001    0.0000   -0.0000    0.0093    0.9923    0.0000    0.0000   -0.0391    0.0000
    39 S4     3pz       -0.0003   -0.0003    0.0000   -0.0000    0.0023    0.0258    0.0000    0.0000    0.0829   -0.0000
    40 S4     *pz        0.0003   -0.0027   -0.0000    0.0005   -0.0010   -0.0051   -0.0000    0.0000   -0.0338    0.0000
    41 H5     1s        -0.0001    0.0001   -0.0001   -0.0000    0.0002    0.0004   -0.0001    0.0000    0.0426   -0.0918
    42 H5     *s        -0.0003    0.0003   -0.0023    0.0021    0.0007    0.0008   -0.0010    0.0000    0.0022   -0.0194
    43 H6     1s         0.0001    0.0001   -0.0001    0.0000   -0.0002   -0.0001    0.0003   -0.0001    0.0466   -0.1004
    44 H6     *s        -0.0000   -0.0003   -0.0024    0.0022    0.0002    0.0002   -0.0004    0.0004    0.0030   -0.0216
    45 H7     1s         0.0001    0.0001   -0.0001    0.0000   -0.0002   -0.0001    0.0003    0.0001    0.0466   -0.1004
    46 H7     *s        -0.0000   -0.0003   -0.0024    0.0022    0.0002    0.0002   -0.0004   -0.0004    0.0030   -0.0216
    47 H8     1s        -0.0001    0.0001    0.0001   -0.0000    0.0002    0.0004    0.0001    0.0000    0.0426    0.0918
    48 H8     *s        -0.0003    0.0003    0.0023    0.0021    0.0007    0.0008    0.0010    0.0000    0.0022    0.0194
    49 H9     1s         0.0001    0.0001    0.0001    0.0000   -0.0002   -0.0001   -0.0003    0.0001    0.0466    0.1004
    50 H9     *s        -0.0000   -0.0003    0.0024    0.0022    0.0002    0.0002    0.0004   -0.0004    0.0030    0.0216
    51 H10    1s         0.0001    0.0001    0.0001    0.0000   -0.0002   -0.0001   -0.0003   -0.0001    0.0466    0.1004
    52 H10    *s        -0.0000   -0.0003    0.0024    0.0022    0.0002    0.0002    0.0004    0.0004    0.0030    0.0216
 
 
      Orbital                11        12        13        14        15        16        17        18        19        20
      Energy            -0.9491   -0.7054   -0.6024   -0.5994   -0.5964   -0.5579   -0.5105   -0.4763   -0.0000    0.0000
      Occ. No.           2.0000    2.0000    2.0000    2.0000    2.0000    2.0000    2.0000    1.7632    1.7830    1.4153
 
     1 C1     1s        -0.0910   -0.0399    0.0065    0.0000   -0.0109   -0.0000    0.0117    0.0168   -0.0000   -0.0280
     2 C1     2s         0.1733    0.0721   -0.0134    0.0000    0.0143   -0.0000   -0.0340   -0.0375   -0.0000    0.0489
     3 C1     *s         0.1892    0.1316   -0.0199   -0.0000    0.1024    0.0000    0.0353   -0.0297    0.0000    0.2045
     4 C1     2px       -0.0000   -0.0000   -0.0000    0.3021   -0.0000   -0.3164   -0.0000   -0.0000   -0.0637    0.0000
     5 C1     *px       -0.0000   -0.0000   -0.0000    0.1483   -0.0000   -0.1689   -0.0000   -0.0000   -0.0793    0.0000
     6 C1     2py       -0.0099   -0.2286    0.1333   -0.0000   -0.0651    0.0000   -0.3058   -0.0796   -0.0000    0.1058
     7 C1     *py        0.0001   -0.0756    0.0770   -0.0000   -0.0012    0.0000   -0.1359   -0.0216    0.0000    0.1035
     8 C1     2pz        0.0397    0.0870    0.2690    0.0000    0.2876    0.0000   -0.1014    0.0922    0.0000   -0.0934
     9 C1     *pz        0.0109    0.0295    0.1390    0.0000    0.1142   -0.0000   -0.0888    0.0626   -0.0000   -0.0719
    10 C2     1s         0.0133    0.1289    0.0203   -0.0000   -0.0000    0.0000   -0.0000   -0.0449    0.0000    0.0000
    11 C2     2s        -0.0204   -0.2554   -0.0351   -0.0000    0.0000    0.0000   -0.0000    0.0855    0.0000    0.0000
    12 C2     *s        -0.0512   -0.3700   -0.0802    0.0000    0.0000   -0.0000    0.0000    0.1758   -0.0000   -0.0000
    13 C2     2px       -0.0000   -0.0000   -0.0000    0.1344   -0.0000    0.0000   -0.0000   -0.0000    0.1668    0.0000
    14 C2     *px        0.0000   -0.0000   -0.0000    0.0496   -0.0000   -0.0000   -0.0000   -0.0000    0.1384    0.0000
    15 C2     2py        0.0000    0.0000    0.0000    0.0000    0.2865   -0.0000    0.2777    0.0000    0.0000   -0.1313
    16 C2     *py       -0.0000   -0.0000    0.0000    0.0000    0.2158    0.0000    0.2250    0.0000    0.0000    0.0685
    17 C2     2pz        0.1583   -0.1422    0.0278   -0.0000    0.0000    0.0000    0.0000   -0.3823    0.0000    0.0000
    18 C2     *pz        0.0152   -0.0515   -0.0012    0.0000    0.0000   -0.0000    0.0000   -0.2453   -0.0000    0.0000
    19 C3     1s        -0.0910   -0.0399    0.0065    0.0000    0.0109   -0.0000   -0.0117    0.0168   -0.0000    0.0280
    20 C3     2s         0.1733    0.0721   -0.0134    0.0000   -0.0143   -0.0000    0.0340   -0.0375    0.0000   -0.0489
    21 C3     *s         0.1892    0.1316   -0.0199   -0.0000   -0.1024    0.0000   -0.0353   -0.0297   -0.0000   -0.2045
    22 C3     2px        0.0000    0.0000   -0.0000    0.3021   -0.0000    0.3164    0.0000   -0.0000   -0.0637    0.0000
    23 C3     *px       -0.0000    0.0000   -0.0000    0.1483   -0.0000    0.1689   -0.0000   -0.0000   -0.0793   -0.0000
    24 C3     2py        0.0099    0.2286   -0.1333   -0.0000   -0.0651   -0.0000   -0.3058    0.0796   -0.0000    0.1058
    25 C3     *py       -0.0001    0.0756   -0.0770    0.0000   -0.0012   -0.0000   -0.1359    0.0216   -0.0000    0.1035
    26 C3     2pz        0.0397    0.0870    0.2690   -0.0000   -0.2876   -0.0000    0.1014    0.0922   -0.0000    0.0934
    27 C3     *pz        0.0109    0.0295    0.1390   -0.0000   -0.1142    0.0000    0.0888    0.0626    0.0000    0.0719
    28 S4     1s        -0.0565    0.0299    0.0163    0.0000   -0.0000   -0.0000    0.0000   -0.0166    0.0000   -0.0000
    29 S4     2s         0.2607   -0.1390   -0.0758    0.0000    0.0000    0.0000   -0.0000    0.0835   -0.0000    0.0000
    30 S4     3s        -0.5408    0.2946    0.1644    0.0000   -0.0000   -0.0000    0.0000   -0.1574    0.0000   -0.0000
    31 S4     *s        -0.2115    0.1971    0.1079   -0.0000   -0.0000   -0.0000    0.0000   -0.3577    0.0000    0.0000
    32 S4     2px       -0.0000    0.0000    0.0000   -0.0211    0.0000   -0.0000    0.0000   -0.0000   -0.2482    0.0000
    33 S4     3px        0.0000   -0.0000   -0.0000    0.0519   -0.0000    0.0000   -0.0000    0.0000    0.6588   -0.0000
    34 S4     *px       -0.0000   -0.0000   -0.0000    0.0176   -0.0000    0.0000   -0.0000    0.0000    0.3576   -0.0000
    35 S4     2py        0.0000   -0.0000   -0.0000   -0.0000   -0.0587   -0.0000   -0.0469   -0.0000   -0.0000   -0.2522
    36 S4     3py       -0.0000    0.0000    0.0000    0.0000    0.1456   -0.0000    0.1172    0.0000    0.0000    0.6714
    37 S4     *py       -0.0000    0.0000    0.0000    0.0000    0.0367   -0.0000    0.0346    0.0000    0.0000    0.4177
    38 S4     2pz        0.0248    0.0272    0.0149    0.0000    0.0000    0.0000    0.0000   -0.2175    0.0000    0.0000
    39 S4     3pz       -0.0564   -0.0583   -0.0290    0.0000   -0.0000   -0.0000   -0.0000    0.5468   -0.0000   -0.0000
    40 S4     *pz        0.0162    0.0164    0.0114   -0.0000    0.0000   -0.0000    0.0000    0.0744   -0.0000   -0.0000
    41 H5     1s         0.0849    0.0678    0.1913    0.0000    0.1825   -0.0000   -0.1212    0.0575   -0.0000   -0.0358
    42 H5     *s         0.0299    0.0371    0.1459    0.0000    0.1305   -0.0000   -0.0907    0.0682   -0.0000   -0.0626
    43 H6     1s         0.0599    0.0935   -0.0945    0.1596   -0.0130   -0.1746    0.1217   -0.0073   -0.0420   -0.0044
    44 H6     *s         0.0129    0.0506   -0.0631    0.1222   -0.0093   -0.1344    0.1049    0.0011   -0.0252   -0.0197
    45 H7     1s         0.0599    0.0935   -0.0945   -0.1596   -0.0130    0.1746    0.1217   -0.0073    0.0420   -0.0044
    46 H7     *s         0.0129    0.0506   -0.0631   -0.1222   -0.0093    0.1344    0.1049    0.0011    0.0252   -0.0197
    47 H8     1s         0.0849    0.0678    0.1913   -0.0000   -0.1825   -0.0000    0.1212    0.0575   -0.0000    0.0358
    48 H8     *s         0.0299    0.0371    0.1459   -0.0000   -0.1305   -0.0000    0.0907    0.0682   -0.0000    0.0626
    49 H9     1s         0.0599    0.0935   -0.0945   -0.1596    0.0130   -0.1746   -0.1217   -0.0073    0.0420    0.0044
    50 H9     *s         0.0129    0.0506   -0.0631   -0.1222    0.0093   -0.1344   -0.1049    0.0011    0.0252    0.0197
    51 H10    1s         0.0599    0.0935   -0.0945    0.1596    0.0130    0.1746   -0.1217   -0.0073   -0.0420    0.0044
    52 H10    *s         0.0129    0.0506   -0.0631    0.1222    0.0093    0.1344   -0.1049    0.0011   -0.0252    0.0197
 
 
      Orbital                21        22
      Energy            -0.0000   -0.0000
      Occ. No.           1.0024    0.0361
 
     1 C1     1s        -0.0000   -0.0033
     2 C1     2s        -0.0000    0.0144
     3 C1     *s         0.0000   -0.0372
     4 C1     2px        0.0448    0.0000
     5 C1     *px        0.0322   -0.0000
     6 C1     2py        0.0000    0.0293
     7 C1     *py        0.0000   -0.0672
     8 C1     2pz       -0.0000   -0.0300
     9 C1     *pz       -0.0000   -0.0178
    10 C2     1s         0.0000    0.1042
    11 C2     2s         0.0000   -0.3177
    12 C2     *s        -0.0000   -0.8014
    13 C2     2px       -0.5640    0.0000
    14 C2     *px       -0.6406   -0.0000
    15 C2     2py       -0.0000   -0.0000
    16 C2     *py        0.0000   -0.0000
    17 C2     2pz       -0.0000    0.7152
    18 C2     *pz       -0.0000    0.5661
    19 C3     1s        -0.0000   -0.0033
    20 C3     2s        -0.0000    0.0144
    21 C3     *s         0.0000   -0.0372
    22 C3     2px        0.0448    0.0000
    23 C3     *px        0.0322    0.0000
    24 C3     2py       -0.0000   -0.0293
    25 C3     *py        0.0000    0.0672
    26 C3     2pz       -0.0000   -0.0300
    27 C3     *pz       -0.0000   -0.0178
    28 S4     1s        -0.0000    0.0214
    29 S4     2s         0.0000   -0.1065
    30 S4     3s        -0.0000    0.2323
    31 S4     *s         0.0000    0.8064
    32 S4     2px       -0.0990    0.0000
    33 S4     3px        0.2816   -0.0000
    34 S4     *px        0.3338    0.0000
    35 S4     2py        0.0000   -0.0000
    36 S4     3py       -0.0000    0.0000
    37 S4     *py       -0.0000   -0.0000
    38 S4     2pz        0.0000   -0.2524
    39 S4     3pz       -0.0000    0.8939
    40 S4     *pz        0.0000    0.5627
    41 H5     1s        -0.0000   -0.0338
    42 H5     *s         0.0000   -0.0404
    43 H6     1s         0.0855    0.0103
    44 H6     *s         0.1654   -0.0191
    45 H7     1s        -0.0855    0.0103
    46 H7     *s        -0.1654   -0.0191
    47 H8     1s         0.0000   -0.0338
    48 H8     *s        -0.0000   -0.0404
    49 H9     1s        -0.0855    0.0103
    50 H9     *s        -0.1654   -0.0191
    51 H10    1s         0.0855    0.0103
    52 H10    *s         0.1654   -0.0191
--
 
      Von Neumann Entropy (Root   1) =  0.36660
 

      Mulliken population analysis for root number:  1
      -----------------------------------------------
 
 
++    Molecular charges:
      ------------------
 
      Mulliken charges per centre and basis function type
      ---------------------------------------------------
 
                C1      C2      C3      S4      H5      H6      H7      H8      H9      H10   
      1s       1.9977  1.9978  1.9977  1.9998  0.5409  0.5317  0.5317  0.5409  0.5317  0.5317
      2s       0.6566  0.6873  0.6566  1.9985  0.0000  0.0000  0.0000  0.0000  0.0000  0.0000
      2px      0.7118  0.4376  0.7118  1.9917  0.0000  0.0000  0.0000  0.0000  0.0000  0.0000
      2pz      0.7028  0.7368  0.7028  1.9913  0.0000  0.0000  0.0000  0.0000  0.0000  0.0000
      2py      0.6894  0.7264  0.6894  1.9943  0.0000  0.0000  0.0000  0.0000  0.0000  0.0000
      3s       0.0000  0.0000  0.0000  1.3632  0.0000  0.0000  0.0000  0.0000  0.0000  0.0000
      3px      0.0000  0.0000  0.0000  0.8255  0.0000  0.0000  0.0000  0.0000  0.0000  0.0000
      3pz      0.0000  0.0000  0.0000  0.8584  0.0000  0.0000  0.0000  0.0000  0.0000  0.0000
      3py      0.0000  0.0000  0.0000  1.2568  0.0000  0.0000  0.0000  0.0000  0.0000  0.0000
      *s       0.7052  0.6312  0.7052  0.6034  0.2923  0.2837  0.2837  0.2923  0.2837  0.2837
      *px      0.3885  0.4221  0.3885  0.3687  0.0000  0.0000  0.0000  0.0000  0.0000  0.0000
      *pz      0.3311  0.2213  0.3311  0.0205  0.0000  0.0000  0.0000  0.0000  0.0000  0.0000
      *py      0.2753  0.3640  0.2753  0.6584  0.0000  0.0000  0.0000  0.0000  0.0000  0.0000
      Total    6.4584  6.2245  6.4584 15.9305  0.8332  0.8155  0.8155  0.8332  0.8155  0.8155
 
      N-E     -0.4584 -0.2245 -0.4584  0.0695  0.1668  0.1845  0.1845  0.1668  0.1845  0.1845
 
      Total electronic charge=   40.000000
 
      Total            charge=   -0.000000
--
 
 

      Expectation values of various properties for root number:  1
      -----------------------------------------------------------
 
 
++    Molecular properties:
      ---------------------
 
      Charge (e):
                      =   -0.0000
      Dipole Moment (Debye):
      Origin of the operator (Ang)=    0.0000    0.0000    0.0000
                   X=  8.4277E-08               Y=  3.5831E-08               Z=  2.6589E+00           Total=  2.6589E+00
      Quadrupole Moment (Debye*Ang):
      Origin of the operator (Ang)=    0.0000    0.0000    0.0012
                  XX= -3.2418E+01              XY=  2.9483E-08              XZ=  9.7316E-08              YY= -3.3223E+01
                  YZ=  1.9040E-07              ZZ= -3.3608E+01
      In traceless form (Debye*Ang)
                  XX=  9.9688E-01              XY=  4.4224E-08              XZ=  1.4597E-07              YY= -2.0991E-01
                  YZ=  2.8559E-07              ZZ= -7.8697E-01
--
 
      Von Neumann Entropy (Root   2) =  1.07941
 

      Mulliken population analysis for root number:  2
      -----------------------------------------------
 
 
++    Molecular charges:
      ------------------
 
      Mulliken charges per centre and basis function type
      ---------------------------------------------------
 
                C1      C2      C3      S4      H5      H6      H7      H8      H9      H10   
      1s       1.9977  1.9977  1.9977  1.9998  0.5382  0.5348  0.5348  0.5382  0.5348  0.5348
      2s       0.6523  0.6815  0.6523  1.9984  0.0000  0.0000  0.0000  0.0000  0.0000  0.0000
      2px      0.7109  0.6243  0.7109  1.9945  0.0000  0.0000  0.0000  0.0000  0.0000  0.0000
      2pz      0.6905  0.6901  0.6905  1.9918  0.0000  0.0000  0.0000  0.0000  0.0000  0.0000
      2py      0.6723  0.7057  0.6723  1.9905  0.0000  0.0000  0.0000  0.0000  0.0000  0.0000
      3s       0.0000  0.0000  0.0000  1.3592  0.0000  0.0000  0.0000  0.0000  0.0000  0.0000
      3px      0.0000  0.0000  0.0000  1.2333  0.0000  0.0000  0.0000  0.0000  0.0000  0.0000
      3pz      0.0000  0.0000  0.0000  0.9263  0.0000  0.0000  0.0000  0.0000  0.0000  0.0000
      3py      0.0000  0.0000  0.0000  0.6979  0.0000  0.0000  0.0000  0.0000  0.0000  0.0000
      *s       0.7051  0.6245  0.7051  0.5906  0.2894  0.2876  0.2876  0.2894  0.2876  0.2876
      *px      0.3899  0.5040  0.3899  0.6551  0.0000  0.0000  0.0000  0.0000  0.0000  0.0000
      *pz      0.3311  0.2088  0.3311  0.0439  0.0000  0.0000  0.0000  0.0000  0.0000  0.0000
      *py      0.2661  0.3576  0.2661  0.3479  0.0000  0.0000  0.0000  0.0000  0.0000  0.0000
      Total    6.4160  6.3942  6.4160 15.8291  0.8276  0.8224  0.8224  0.8276  0.8224  0.8224
 
      N-E     -0.4160 -0.3942 -0.4160  0.1709  0.1724  0.1776  0.1776  0.1724  0.1776  0.1776
 
      Total electronic charge=   40.000000
 
      Total            charge=   -0.000000
--
 
 

      Expectation values of various properties for root number:  2
      -----------------------------------------------------------
 
 
++    Molecular properties:
      ---------------------
 
      Charge (e):
                      =   -0.0000
      Dipole Moment (Debye):
      Origin of the operator (Ang)=    0.0000    0.0000    0.0000
                   X=  7.1810E-08               Y= -6.2004E-08               Z=  2.0597E+00           Total=  2.0597E+00
      Quadrupole Moment (Debye*Ang):
      Origin of the operator (Ang)=    0.0000    0.0000    0.0012
                  XX= -3.5092E+01              XY=  2.6385E-08              XZ=  1.0707E-07              YY= -3.0808E+01
                  YZ=  3.0501E-07              ZZ= -3.3434E+01
      In traceless form (Debye*Ang)
                  XX= -2.9708E+00              XY=  3.9578E-08              XZ=  1.6061E-07              YY=  3.4548E+00
                  YZ=  4.5752E-07              ZZ= -4.8400E-01
--
 
      Von Neumann Entropy (Root   3) =  0.96590
 

      Mulliken population analysis for root number:  3
      -----------------------------------------------
 
 
++    Molecular charges:
      ------------------
 
      Mulliken charges per centre and basis function type
      ---------------------------------------------------
 
                C1      C2      C3      S4      H5      H6      H7      H8      H9      H10   
      1s       1.9977  1.9979  1.9977  1.9998  0.5414  0.5230  0.5230  0.5414  0.5230  0.5230
      2s       0.6566  0.6983  0.6566  1.9985  0.0000  0.0000  0.0000  0.0000  0.0000  0.0000
      2px      0.7032  0.3332  0.7032  1.9928  0.0000  0.0000  0.0000  0.0000  0.0000  0.0000
      2pz      0.7027  0.8097  0.7027  1.9906  0.0000  0.0000  0.0000  0.0000  0.0000  0.0000
      2py      0.6895  0.7261  0.6895  1.9942  0.0000  0.0000  0.0000  0.0000  0.0000  0.0000
      3s       0.0000  0.0000  0.0000  1.3690  0.0000  0.0000  0.0000  0.0000  0.0000  0.0000
      3px      0.0000  0.0000  0.0000  0.9867  0.0000  0.0000  0.0000  0.0000  0.0000  0.0000
      3pz      0.0000  0.0000  0.0000  0.7575  0.0000  0.0000  0.0000  0.0000  0.0000  0.0000
      3py      0.0000  0.0000  0.0000  1.2498  0.0000  0.0000  0.0000  0.0000  0.0000  0.0000
      *s       0.7052  0.6414  0.7052  0.6206  0.2925  0.2836  0.2836  0.2925  0.2836  0.2836
      *px      0.3928  0.2117  0.3928  0.5774  0.0000  0.0000  0.0000  0.0000  0.0000  0.0000
      *pz      0.3311  0.2367  0.3311 -0.0111  0.0000  0.0000  0.0000  0.0000  0.0000  0.0000
      *py      0.2745  0.3639  0.2745  0.6545  0.0000  0.0000  0.0000  0.0000  0.0000  0.0000
      Total    6.4533  6.0188  6.4533 16.1803  0.8339  0.8066  0.8066  0.8339  0.8066  0.8066
 
      N-E     -0.4533 -0.0188 -0.4533 -0.1803  0.1661  0.1934  0.1934  0.1661  0.1934  0.1934
 
      Total electronic charge=   40.000000
 
      Total            charge=   -0.000000
--
 
 

      Expectation values of various properties for root number:  3
      -----------------------------------------------------------
 
 
++    Molecular properties:
      ---------------------
 
      Charge (e):
                      =   -0.0000
      Dipole Moment (Debye):
      Origin of the operator (Ang)=    0.0000    0.0000    0.0000
                   X=  6.1465E-08               Y= -8.1814E-09               Z=  4.9098E+00           Total=  4.9098E+00
      Quadrupole Moment (Debye*Ang):
      Origin of the operator (Ang)=    0.0000    0.0000    0.0012
                  XX= -3.3044E+01              XY=  3.4298E-08              XZ=  1.2286E-07              YY= -3.2375E+01
                  YZ=  1.4140E-07              ZZ= -3.6659E+01
      In traceless form (Debye*Ang)
                  XX=  1.4731E+00              XY=  5.1447E-08              XZ=  1.8430E-07              YY=  2.4762E+00
                  YZ=  2.1211E-07              ZZ= -3.9493E+00
--
 
      Von Neumann Entropy (Root   4) =  1.02978
 

      Mulliken population analysis for root number:  4
      -----------------------------------------------
 
 
++    Molecular charges:
      ------------------
 
      Mulliken charges per centre and basis function type
      ---------------------------------------------------
 
                C1      C2      C3      S4      H5      H6      H7      H8      H9      H10   
      1s       1.9977  1.9976  1.9977  1.9998  0.5341  0.5363  0.5363  0.5341  0.5363  0.5363
      2s       0.6542  0.6675  0.6542  1.9983  0.0000  0.0000  0.0000  0.0000  0.0000  0.0000
      2px      0.7116  0.6610  0.7116  1.9942  0.0000  0.0000  0.0000  0.0000  0.0000  0.0000
      2pz      0.6907  0.4560  0.6907  1.9882  0.0000  0.0000  0.0000  0.0000  0.0000  0.0000
      2py      0.6779  0.7264  0.6779  1.9943  0.0000  0.0000  0.0000  0.0000  0.0000  0.0000
      3s       0.0000  0.0000  0.0000  1.3328  0.0000  0.0000  0.0000  0.0000  0.0000  0.0000
      3px      0.0000  0.0000  0.0000  1.1849  0.0000  0.0000  0.0000  0.0000  0.0000  0.0000
      3pz      0.0000  0.0000  0.0000  0.5027  0.0000  0.0000  0.0000  0.0000  0.0000  0.0000
      3py      0.0000  0.0000  0.0000  1.2568  0.0000  0.0000  0.0000  0.0000  0.0000  0.0000
      *s       0.7049  0.6063  0.7049  0.5157  0.2877  0.2891  0.2891  0.2877  0.2891  0.2891
      *px      0.3892  0.5452  0.3892  0.6169  0.0000  0.0000  0.0000  0.0000  0.0000  0.0000
      *pz      0.3292  0.1300  0.3292 -0.0009  0.0000  0.0000  0.0000  0.0000  0.0000  0.0000
      *py      0.2740  0.3640  0.2740  0.6584  0.0000  0.0000  0.0000  0.0000  0.0000  0.0000
      Total    6.4295  6.1540  6.4295 16.0420  0.8218  0.8254  0.8254  0.8218  0.8254  0.8254
 
      N-E     -0.4295 -0.1540 -0.4295 -0.0420  0.1782  0.1746  0.1746  0.1782  0.1746  0.1746
 
      Total electronic charge=   40.000000
 
      Total            charge=   -0.000000
--
 
 

      Expectation values of various properties for root number:  4
      -----------------------------------------------------------
 
 
++    Molecular properties:
      ---------------------
 
      Charge (e):
                      =   -0.0000
      Dipole Moment (Debye):
      Origin of the operator (Ang)=    0.0000    0.0000    0.0000
                   X=  7.3214E-08               Y= -8.9573E-08               Z=  2.5950E+00           Total=  2.5950E+00
      Quadrupole Moment (Debye*Ang):
      Origin of the operator (Ang)=    0.0000    0.0000    0.0012
                  XX= -3.5287E+01              XY=  3.7498E-08              XZ=  8.2752E-08              YY= -3.3812E+01
                  YZ= -6.2239E-08              ZZ= -3.1577E+01
      In traceless form (Debye*Ang)
                  XX= -2.5931E+00              XY=  5.6247E-08              XZ=  1.2413E-07              YY= -3.7955E-01
                  YZ= -9.3359E-08              ZZ=  2.9726E+00
--
 
      Von Neumann Entropy (Root   5) =  0.32741
 

      Mulliken population analysis for root number:  5
      -----------------------------------------------
 
 
++    Molecular charges:
      ------------------
 
      Mulliken charges per centre and basis function type
      ---------------------------------------------------
 
                C1      C2      C3      S4      H5      H6      H7      H8      H9      H10   
      1s       1.9977  1.9976  1.9977  1.9998  0.5342  0.5469  0.5469  0.5342  0.5469  0.5469
      2s       0.6480  0.6649  0.6480  1.9984  0.0000  0.0000  0.0000  0.0000  0.0000  0.0000
      2px      0.7120  1.0663  0.7120  1.9947  0.0000  0.0000  0.0000  0.0000  0.0000  0.0000
      2pz      0.6778  0.5305  0.6778  1.9933  0.0000  0.0000  0.0000  0.0000  0.0000  0.0000
      2py      0.6548  0.6868  0.6548  1.9871  0.0000  0.0000  0.0000  0.0000  0.0000  0.0000
      3s       0.0000  0.0000  0.0000  1.3447  0.0000  0.0000  0.0000  0.0000  0.0000  0.0000
      3px      0.0000  0.0000  0.0000  1.2595  0.0000  0.0000  0.0000  0.0000  0.0000  0.0000
      3pz      0.0000  0.0000  0.0000  1.1585  0.0000  0.0000  0.0000  0.0000  0.0000  0.0000
      3py      0.0000  0.0000  0.0000  0.1900  0.0000  0.0000  0.0000  0.0000  0.0000  0.0000
      *s       0.7051  0.6012  0.7051  0.5414  0.2858  0.2962  0.2962  0.2858  0.2962  0.2962
      *px      0.3873  0.8400  0.3873  0.6815  0.0000  0.0000  0.0000  0.0000  0.0000  0.0000
      *pz      0.3308  0.1585  0.3308  0.1312  0.0000  0.0000  0.0000  0.0000  0.0000  0.0000
      *py      0.2588  0.3519  0.2588  0.0657  0.0000  0.0000  0.0000  0.0000  0.0000  0.0000
      Total    6.3723  6.8976  6.3723 15.3457  0.8199  0.8431  0.8431  0.8199  0.8431  0.8431
 
      N-E     -0.3723 -0.8976 -0.3723  0.6543  0.1801  0.1569  0.1569  0.1801  0.1569  0.1569
 
      Total electronic charge=   40.000000
 
      Total            charge=   -0.000000
--
 
 

      Expectation values of various properties for root number:  5
      -----------------------------------------------------------
 
 
++    Molecular properties:
      ---------------------
 
      Charge (e):
                      =   -0.0000
      Dipole Moment (Debye):
      Origin of the operator (Ang)=    0.0000    0.0000    0.0000
                   X=  6.9182E-08               Y= -5.6941E-08               Z= -1.8145E+00           Total=  1.8145E+00
      Quadrupole Moment (Debye*Ang):
      Origin of the operator (Ang)=    0.0000    0.0000    0.0012
                  XX= -3.6949E+01              XY=  4.5627E-08              XZ=  1.1779E-07              YY= -2.9747E+01
                  YZ= -9.0205E-08              ZZ= -3.0599E+01
      In traceless form (Debye*Ang)
                  XX= -6.7760E+00              XY=  6.8441E-08              XZ=  1.7669E-07              YY=  4.0267E+00
                  YZ= -1.3531E-07              ZZ=  2.7493E+00
--
 
 
      Input file to MOLDEN was generated!
 
 
      Input file to MOLDEN was generated!
 
 
      Input file to MOLDEN was generated!
 
 
      Input file to MOLDEN was generated!
 
 
      Input file to MOLDEN was generated!
 
 
      Input file to MOLDEN was generated!
 
      Average orbitals are written to the RASORB file
      Natural orbitals for root   1 are written to the RASORB.1 file
      Natural orbitals for root   2 are written to the RASORB.2 file
      Natural orbitals for root   3 are written to the RASORB.3 file
      Natural orbitals for root   4 are written to the RASORB.4 file
      Natural orbitals for root   5 are written to the RASORB.5 file
      Spin density orbitals for root   1 are written to the SPDORB.1 file
      Spin density orbitals for root   2 are written to the SPDORB.2 file
      Spin density orbitals for root   3 are written to the SPDORB.3 file
      Spin density orbitals for root   4 are written to the SPDORB.4 file
      Spin density orbitals for root   5 are written to the SPDORB.5 file
 
--- Stop Module: rasscf at Wed May 29 11:47:55 2024 /rc=_RC_ALL_IS_WELL_ ---
--- Module rasscf spent 3 seconds ---

*** symbolic link created: INPORB -> MOLCAS.RasOrb
--- Start Module: caspt2 at Wed May 29 11:47:55 2024 ---
 
()()()()()()()()()()()()()()()()()()()()()()()()()()()()()()()()()()()()()()()()()()()()()()()()()()

                                              &CASPT2

                                   only a single process is used
                       available to each process: 2.0 GB of memory, 1 thread?
                                            pid: 3310553
()()()()()()()()()()()()()()()()()()()()()()()()()()()()()()()()()()()()()()()()()()()()()()()()()()
 
 ###############################################################################
 ###############################################################################
 ###                                                                         ###
 ###                                                                         ###
 ###    WARNING: Too large iRlxRoot.                                         ###
 ###                                                                         ###
 ###                                                                         ###
 ###############################################################################
 ###############################################################################
  Reset to NSTATE=                     3
 
++    Wave function specifications:
      -----------------------------
 
      Number of closed shell electrons          18
      Number of electrons in active shells       6
      Max number of holes in RAS1 space          0
      Max number of electrons in RAS3 space      0
      Number of inactive orbitals                9
      Number of active orbitals                  5
      Number of secondary orbitals              30
      Spin quantum number                      0.0
      State symmetry                             1
      Number of CSFs                            50
      Number of CASSCF root(s) available         5
      CASPT2 state passed to geometry opt.       3
      A file JOBMIX will be created
      This is a MULTI-STATE CASSCF reference
      Number of CI roots used                    3
      These are:                                 1   2   3
      Off-diagonal elements of Heff are computed
--
 
++    Orbital specifications:
      -----------------------
 
      Symmetry species                           1
                                                 a
      Frozen orbitals                            8
      Inactive orbitals                          9
      Active orbitals                            5
      Secondary orbitals                        30
      Deleted orbitals                           0
      Number of basis functions                 52
--
 
++    CASPT2 specifications:
      ----------------------
 
      Type of calculation                        MS-CASPT2
      Fock operator                              state-specific
      IPEA shift                                 0.25
      Real shift                                 0.00
      Imaginary shift                            0.10
      The input orbitals will be transformed to quasi-canonical
--
 
--------------------------------------------------------------------------------
 Estimated memory requirements:
  POLY3 :                   252780
  RHS:                      299594
  SIGMA :                   333700
  PRPCTL:                        0
 Available workspace:    224988642
 
++ CASPT2 computation for group   1
 
********************************************************************************
 Multi-State initialization phase begins for group   1
--------------------------------------------------------------------------------
********************************************************************************
 Compute H0 matrices for state    1
--------------------------------------------------------------------------------
--------------------------------------------------------------------------------
 H0 matrices have been computed.
 
********************************************************************************
  CASPT2 EQUATION SOLUTION
--------------------------------------------------------------------------------
 
  Total nr of CASPT2 parameters:
   Before reduction:      119970
   After  reduction:      117165
 
 Variance of |WF0>:       0.7762107705
 
 The contributions to the second order correlation energy in atomic units.
-----------------------------------------------------------------------------------------------------------------------------
  IT.      VJTU        VJTI        ATVX        AIVX        VJAI        BVAT        BJAT        BJAI        TOTAL       RNORM  
-----------------------------------------------------------------------------------------------------------------------------
   1    -0.005555   -0.002647   -0.010115   -0.021048   -0.012783   -0.013732   -0.041843   -0.178726   -0.286449    0.004665
   2    -0.005641   -0.002673   -0.010182   -0.021136   -0.012826   -0.013754   -0.041885   -0.178819   -0.286917    0.000600
   3    -0.005643   -0.002673   -0.010190   -0.021148   -0.012829   -0.013758   -0.041890   -0.178822   -0.286951    0.000082
   4    -0.005643   -0.002673   -0.010190   -0.021146   -0.012828   -0.013757   -0.041888   -0.178820   -0.286945    0.000010
   5    -0.005643   -0.002673   -0.010189   -0.021146   -0.012828   -0.013757   -0.041888   -0.178820   -0.286945    0.000001
-----------------------------------------------------------------------------------------------------------------------------
 
  FINAL CASPT2 RESULT:
 
      Reference energy:        -514.5533731998
      E2 (Non-variational):      -0.2869446969
      Shift correction:          -0.0005177774
      E2 (Variational):          -0.2874624743
      Total energy:            -514.8408356741
      Residual norm:              0.0000001978
      Reference weight:           0.89646
 
      Contributions to the CASPT2 correlation energy
      Active & Virtual Only:         -0.0239465215
      One Inactive Excited:          -0.0686775298
      Two Inactive Excited:          -0.1943206456
 
 
++ Denominators, etc.
--------------------------------------------------------------------------------------------------------------
 Report on small energy denominators, large coefficients, and large energy contributions.
CASE  SYMM ACTIVE-MIX  NON-ACTIVE INDICES          DENOMINATOR     RHS VALUE       COEFFICIENT     CONTRIBUTION
VJTU     1  Mu1.0004  In1.014                       1.09714625      0.03406475     -0.02958210     -0.00100771
BJAIP    1  Se1.026 In1.014 Se1.028 In1.016         1.81673465      0.05420336     -0.02998311     -0.00162519
--
 
   (Skipping property calculation,
    use PROP keyword to activate)
--
 
++ CASPT2 computation for group   2
 
********************************************************************************
 Multi-State initialization phase begins for group   2
--------------------------------------------------------------------------------
********************************************************************************
 Compute H0 matrices for state    2
--------------------------------------------------------------------------------
--------------------------------------------------------------------------------
 H0 matrices have been computed.
 
********************************************************************************
  CASPT2 EQUATION SOLUTION
--------------------------------------------------------------------------------
 
  Total nr of CASPT2 parameters:
   Before reduction:      119970
   After  reduction:      116193
 
 Variance of |WF0>:       0.7842416738
 
 The contributions to the second order correlation energy in atomic units.
-----------------------------------------------------------------------------------------------------------------------------
  IT.      VJTU        VJTI        ATVX        AIVX        VJAI        BVAT        BJAT        BJAI        TOTAL       RNORM  
-----------------------------------------------------------------------------------------------------------------------------
   1    -0.011691   -0.001790   -0.008657   -0.024110   -0.017453   -0.012716   -0.041233   -0.179064   -0.296715    0.004968
   2    -0.011837   -0.001818   -0.008731   -0.024224   -0.017511   -0.012747   -0.041297   -0.179167   -0.297333    0.000600
   3    -0.011843   -0.001818   -0.008736   -0.024234   -0.017513   -0.012749   -0.041299   -0.179167   -0.297360    0.000083
   4    -0.011843   -0.001818   -0.008736   -0.024232   -0.017512   -0.012749   -0.041298   -0.179165   -0.297354    0.000011
   5    -0.011843   -0.001818   -0.008736   -0.024232   -0.017512   -0.012749   -0.041298   -0.179165   -0.297353    0.000002
-----------------------------------------------------------------------------------------------------------------------------
 
  FINAL CASPT2 RESULT:
 
      Reference energy:        -514.4543144610
      E2 (Non-variational):      -0.2973531908
      Shift correction:          -0.0008404548
      E2 (Variational):          -0.2981936456
      Total energy:            -514.7525081066
      Residual norm:              0.0000002267
      Reference weight:           0.88412
 
      Contributions to the CASPT2 correlation energy
      Active & Virtual Only:         -0.0214845501
      One Inactive Excited:          -0.0773731475
      Two Inactive Excited:          -0.1984954932
 
 
++ Denominators, etc.
--------------------------------------------------------------------------------------------------------------
 Report on small energy denominators, large coefficients, and large energy contributions.
CASE  SYMM ACTIVE-MIX  NON-ACTIVE INDICES          DENOMINATOR     RHS VALUE       COEFFICIENT     CONTRIBUTION
VJTU     1  Mu1.0007  In1.009                       1.67533920      0.04156673     -0.02579873     -0.00107237
VJTU     1  Mu1.0002  In1.014                       0.56406116     -0.01989661      0.03024941     -0.00060186
VJTU     1  Mu1.0001  In1.015                       0.42045027      0.02959622     -0.06536272     -0.00193449
VJTU     1  Mu1.0001  In1.017                       0.33570166      0.02734003     -0.07431233     -0.00203170
ATVX     1  Mu1.0022  Se1.039                       2.02064772      0.06018618     -0.02821825     -0.00169835
BVATP    1  Mu1.0005  Se1.033 Se1.033               1.91110121     -0.05414289      0.02819024     -0.00152630
BJAIP    1  Se1.026 In1.014 Se1.028 In1.016         1.81355200      0.05438928     -0.03005805     -0.00163484
--
 
   (Skipping property calculation,
    use PROP keyword to activate)
--
 
++ CASPT2 computation for group   3
 
********************************************************************************
 Multi-State initialization phase begins for group   3
--------------------------------------------------------------------------------
********************************************************************************
 Compute H0 matrices for state    3
--------------------------------------------------------------------------------
--------------------------------------------------------------------------------
 H0 matrices have been computed.
 
********************************************************************************
  CASPT2 EQUATION SOLUTION
--------------------------------------------------------------------------------
 
  Total nr of CASPT2 parameters:
   Before reduction:      119970
   After  reduction:      117165
 
 Variance of |WF0>:       0.7879768859
 
 The contributions to the second order correlation energy in atomic units.
-----------------------------------------------------------------------------------------------------------------------------
  IT.      VJTU        VJTI        ATVX        AIVX        VJAI        BVAT        BJAT        BJAI        TOTAL       RNORM  
-----------------------------------------------------------------------------------------------------------------------------
   1    -0.006758   -0.005206   -0.016031   -0.025290   -0.017028   -0.016340   -0.040241   -0.178527   -0.305420    0.005345
   2    -0.006897   -0.005247   -0.016133   -0.025432   -0.017058   -0.016367   -0.040286   -0.178584   -0.306004    0.000765
   3    -0.006902   -0.005249   -0.016146   -0.025446   -0.017059   -0.016373   -0.040294   -0.178591   -0.306060    0.000111
   4    -0.006902   -0.005249   -0.016144   -0.025444   -0.017058   -0.016372   -0.040292   -0.178590   -0.306051    0.000014
   5    -0.006902   -0.005249   -0.016143   -0.025444   -0.017058   -0.016372   -0.040292   -0.178590   -0.306050    0.000002
-----------------------------------------------------------------------------------------------------------------------------
 
  FINAL CASPT2 RESULT:
 
      Reference energy:        -514.3046769873
      E2 (Non-variational):      -0.3060504329
      Shift correction:          -0.0009099751
      E2 (Variational):          -0.3069604080
      Total energy:            -514.6116373953
      Residual norm:              0.0000002565
      Reference weight:           0.87640
 
      Contributions to the CASPT2 correlation energy
      Active & Virtual Only:         -0.0325157779
      One Inactive Excited:          -0.0726385973
      Two Inactive Excited:          -0.2008960577
 
 
++ Denominators, etc.
--------------------------------------------------------------------------------------------------------------
 Report on small energy denominators, large coefficients, and large energy contributions.
CASE  SYMM ACTIVE-MIX  NON-ACTIVE INDICES          DENOMINATOR     RHS VALUE       COEFFICIENT     CONTRIBUTION
VJTU     1  Mu1.0001  In1.014                       0.40635693      0.02547025     -0.05808299     -0.00147939
VJTIP    1  Mu1.0001  In1.014 In1.014               1.04278134      0.02834325     -0.02522594     -0.00071499
ATVX     1  Mu1.0001  Se1.026                       0.39424052     -0.02366734      0.05617293     -0.00132946
ATVX     1  Mu1.0002  Se1.027                       0.48127960     -0.01874994      0.03732196     -0.00069978
ATVX     1  Mu1.0001  Se1.033                       0.66948970      0.04025626     -0.05536592     -0.00222882
ATVX     1  Mu1.0002  Se1.034                       0.79392749     -0.03220034      0.03819624     -0.00122993
ATVX     1  Mu1.0002  Se1.037                       0.95182756      0.03005285     -0.03018656     -0.00090719
ATVX     1  Mu1.0004  Se1.039                       1.21027509     -0.04010832      0.03284821     -0.00131749
AIVX     1  Mu1.0001  In1.014 Se1.026               0.78985043      0.02011704     -0.02615301     -0.00052612
AIVX     1  Mu1.0001  In1.016 Se1.028               0.75726295      0.02507075     -0.03154456     -0.00079085
AIVX     1  Mu1.0001  In1.012 Se1.029               0.97362273     -0.03170407      0.03112563     -0.00098681
BVATP    1  Mu1.0001  Se1.033 Se1.033               1.57539095      0.04534263     -0.02708040     -0.00122790
BVATP    1  Mu1.0003  Se1.034 Se1.034               1.87043538      0.04894787     -0.02601582     -0.00127342
BVATM    1  Mu1.0001  Se1.034 Se1.033               1.68933689     -0.04457587      0.02508546     -0.00111821
BJAIP    1  Se1.026 In1.014 Se1.028 In1.016         1.82551165      0.05483339     -0.02993920     -0.00164167
--
 
   (Skipping property calculation,
    use PROP keyword to activate)
--
 
  Total CASPT2 energies:
::    CASPT2 Root  1     Total energy:   -514.84083567
::    CASPT2 Root  2     Total energy:   -514.75250811
::    CASPT2 Root  3     Total energy:   -514.61163740
 
++ Multi-State CASPT2 section:
********************************************************************************
  MULTI-STATE CASPT2 SECTION
--------------------------------------------------------------------------------
 
  Output diagonal energies have been shifted. Add   -514.000000000000     
 
  Effective Hamiltonian matrix (Symmetric):
 
                1               2               3
   1        -0.84083567
   2        -0.00000000     -0.75250811
   3        -0.00686189     -0.00000000     -0.61163740
 
       Total MS-CASPT2 energies:
::    MS-CASPT2 Root  1     Total energy:   -514.84104093
::    MS-CASPT2 Root  2     Total energy:   -514.75250811
::    MS-CASPT2 Root  3     Total energy:   -514.61143214
 
       Eigenvectors:
            0.99955294     -0.00000000     -0.02989850
            0.00000000      1.00000000     -0.00000000
            0.02989850      0.00000000      0.99955294
 
--
 
  THE ORIGINAL CI ARRAYS ARE NOW MIXED AS LINEAR
  COMBINATIONS, GIVEN BY THE EIGENVECTORS.
  A NEW JOBIPH FILE NAMED 'JOBMIX' IS PREPARED.
********************************************************************************
 
++ Mixed CI coefficients:
  The CI coefficients for the MIXED state nr.   1
--------------------------------------------------------------------------------
 CI COEFFICIENTS LARGER THAN  0.10D+00
  Occupation of active orbitals, and spin coupling
  of open shells. (u,d: Spin up or down).
  SGUGA info is (Midvert:IsyUp:UpperWalk/LowerWalk)
        Conf  SGUGA info        Occupation    Coefficient         Weight
           1  ( 1:1:   1/   1)   22200          -0.882117       0.778131
           7  ( 2:1:   1/   1)   2u2d0          -0.433653       0.188055
          17  ( 2:1:   3/   2)   u220d           0.106582       0.011360
 
  The CI coefficients for the MIXED state nr.   2
--------------------------------------------------------------------------------
 CI COEFFICIENTS LARGER THAN  0.10D+00
  Occupation of active orbitals, and spin coupling
  of open shells. (u,d: Spin up or down).
  SGUGA info is (Midvert:IsyUp:UpperWalk/LowerWalk)
        Conf  SGUGA info        Occupation    Coefficient         Weight
           2  ( 1:1:   2/   1)   22ud0          -0.993096       0.986239
 
  The CI coefficients for the MIXED state nr.   3
--------------------------------------------------------------------------------
 CI COEFFICIENTS LARGER THAN  0.10D+00
  Occupation of active orbitals, and spin coupling
  of open shells. (u,d: Spin up or down).
  SGUGA info is (Midvert:IsyUp:UpperWalk/LowerWalk)
        Conf  SGUGA info        Occupation    Coefficient         Weight
           1  ( 1:1:   1/   1)   22200          -0.398733       0.158988
           7  ( 2:1:   1/   1)   2u2d0           0.871630       0.759739
          17  ( 2:1:   3/   2)   u220d           0.248582       0.061793
 
--
 
--- Stop Module: caspt2 at Wed May 29 11:47:56 2024 /rc=_RC_ALL_IS_WELL_ ---
--- Module caspt2 spent 1 second ---

>>> COPY MOLCAS.JobMix MOLCAS.1.JobIph

*** symbolic link created: INPORB -> MOLCAS.RasOrb
--- Start Module: rasscf at Wed May 29 11:47:56 2024 ---
 
()()()()()()()()()()()()()()()()()()()()()()()()()()()()()()()()()()()()()()()()()()()()()()()()()()

                                              &RASSCF

                                   only a single process is used
                       available to each process: 2.0 GB of memory, 1 thread?
                                            pid: 3310556
()()()()()()()()()()()()()()()()()()()()()()()()()()()()()()()()()()()()()()()()()()()()()()()()()()
 
 
      Header of the ONEINT file:
      --------------------------
      
      Integrals generated by Gateway/Seward, Wed May 29 11:47:50 2024
 
 
      OrdInt status: non-squared
 
 
      Cartesian coordinates in Angstrom:
      -----------------------------------------------------
      No.  Label        X            Y            Z        
      -----------------------------------------------------
[...]
--
 
++ Velocity transition strengths (spin-free states):
   -------------------------------------------------
     for osc. strength at least  1.00000000E-05
 
      From   To        Osc. strength     Einstein coefficients Ax, Ay, Az (sec-1)    Total A (sec-1)
     -----------------------------------------------------------------------------------------------
         1    3       1.41711106E-01  6.85825434E-09  2.05965936E-08  2.40044502E+08  2.40044502E+08
     -----------------------------------------------------------------------------------------------
--
 
++ Length and velocity gauge comparison (spin-free states):
   --------------------------------------------------------
 
 --------------------------------------------------
 A comparison between the dipole oscillator strengths in 
 length and velocity gauge will be performed
 
     All dipole oscillator differences above the tolerance of   1.00000000E-01  will be printed 
 
 Due to basis set deficiency these oscillator may be problematic 
 
 The tolerance is defined as ABS(1-O_l/O_v) 
 O_l : dipole oscillator strength in length gauge
 O_p : dipole oscillator strength in velocity gauge
 --------------------------------------------------
 
  Problematic transitions have been found
 
      From   To       Difference (%) Osc. st. (len.) Osc. st. (vel.)
     ---------------------------------------------------------------
         1    3            51.713895  2.14995439E-01  1.41711106E-01
     ---------------------------------------------------------------
 
 Number of problematic transitions =                      1
 
--
 
 Electric-dipole - electric-octupole not included
 Electric-dipole - magnetic-quadrupole not included
 
 
      ****************************************************************************************************
      *                                                                                                  *
      *                                    Special properties section                                    *
      *                                                                                                  *
      ****************************************************************************************************
 
 
++ I/O STATISTICS
 
  I. General I/O information
  - - - - - - - - - - - - - - - - - - - - - - - - - - - - - - - - - - - - - - - - - - -
  Unit  Name          Flsize      Write/Read            MBytes           Write/Read
                      (MBytes)       Calls              In/Out           Time, sec.
  - - - - - - - - - - - - - - - - - - - - - - - - - - - - - - - - - - - - - - - - - - -
   1  ANNI              0.00 .       0/       0 .      0.0/      0.0 .       0/       0
   2  RUNFILE           0.36 .     161/    1713 .      1.1/     12.4 .       0/       0
   3  ONEINT            1.70 .       0/    1387 .      0.0/    956.4 .       0/       0
   4  JOB001            1.38 .       0/      51 .      0.0/      1.1 .       0/       0
   5  JOB002            1.38 .       0/      45 .      0.0/      1.1 .       0/       0
   6  TDMFILE           0.82 .      39/      30 .      0.8/      0.6 .       0/       0
  - - - - - - - - - - - - - - - - - - - - - - - - - - - - - - - - - - - - - - - - - - -
   *  TOTAL             5.64 .     200/    3226 .      1.9/    971.7 .       0/       0
  - - - - - - - - - - - - - - - - - - - - - - - - - - - - - - - - - - - - - - - - - - -
 
  II. I/O Access Patterns
  - - - - - - - - - - - - - - - - - - - -
  Unit  Name               % of random
                         Write/Read calls
  - - - - - - - - - - - - - - - - - - - -
   1  ANNI                 0.0/   0.0
   2  RUNFILE             28.6/  10.7
   3  ONEINT               0.0/  74.1
   4  JOB001               0.0/  74.5
   5  JOB002               0.0/  77.8
   6  TDMFILE             97.4/ 100.0
  - - - - - - - - - - - - - - - - - - - -
--
--- Stop Module: rassi at Wed May 29 11:48:15 2024 /rc=_RC_ALL_IS_WELL_ ---
--- Module rassi spent 2 seconds ---

>>> COPY MOLCAS.rassi.h5 MOLCAS.rassi.trd1.h5

>>> COPY MOLCAS.rassi.h5.bak MOLCAS.rassi.h5

>>> COPY MOLCAS.2.JobIph JOB001

>>> COPY MOLCAS.4.JobIph JOB002

*** symbolic link created: INPORB -> MOLCAS.RasOrb
--- Start Module: rassi at Wed May 29 11:48:15 2024 ---
 
()()()()()()()()()()()()()()()()()()()()()()()()()()()()()()()()()()()()()()()()()()()()()()()()()()

                                               &RASSI

                                   only a single process is used
                       available to each process: 2.0 GB of memory, 1 thread?
                                            pid: 3310668
()()()()()()()()()()()()()()()()()()()()()()()()()()()()()()()()()()()()()()()()()()()()()()()()()()
 
 
      ********************************************************************************
      *                                                                              *
      *                             General data section                             *
      *                                                                              *
      ********************************************************************************
 
   Specific data for JOBIPH file 
 JOB001                                                                         
                                                  
   -------------------------------------
 
   Header from SEWARD:
                                                                               
        Integrals generated by Gateway/Seward, Wed May 29 11:47:50 2024        
 
   CASSCF title (first line only):
       (No title given)                                                        
 
   STATE IRREP:                             1
   SPIN MULTIPLICITY:                       2
   ACTIVE ELECTRONS:                        5
   MAX RAS1 HOLES:                          0
   MAX RAS3 ELECTRONS:                      0
   NR OF CONFIG:                           75
 
   Specific data for JOBIPH file 
 JOB002                                                                         
                                                  
   -------------------------------------
 
   Header from SEWARD:
                                                                               
        Integrals generated by Gateway/Seward, Wed May 29 11:47:50 2024        
 
   CASSCF title (first line only):
       (No title given)                                                        
 
   STATE IRREP:                             1
   SPIN MULTIPLICITY:                       4
   ACTIVE ELECTRONS:                        5
   MAX RAS1 HOLES:                          0
   MAX RAS3 ELECTRONS:                      0
   NR OF CONFIG:                           24
 
  Info: creating TDMFILE
        estimated file size                     63 kB
        TDMs in AO format
 
 ###############################################################################
 ###############################################################################
 ###                                                                         ###
 ###                                                                         ###
 ###    WARNING: EJOB used when HEFF is available, possible                  ###
 ###    extra interaction between states is ignored!                         ###
 ###                                                                         ###
 ###                                                                         ###
 ###############################################################################
 ###############################################################################
 
   The following data are common to all the states:
   ------------------------------------------------
   (note: frozen counts as inactive, deleted as secondary)
 
      Nr of irreps: 1
 
                 Total     No./Irrep 
      Irrep                  1
                             a
 
      INACTIVE      17      17
      ACTIVE         5       5
      SECONDARY     30      30
      BASIS         52      52
 
      RAS1           0       0
      RAS2           5       5
      RAS3           0       0
 
        MATRIX ELEMENTS WILL BE COMPUTED FOR THE FOLLOWING ONE-ELECTRON OPERATOR
 S, UNLESS ZERO BY SYMMETRY.
   (Herm=Hermitian, Anti=Antihermitian, Sing=Singlet operator, Trip=Triplet oper
 ator)
     MLTPL  0   1 (HERMSING)     MLTPL  1   1 (HERMSING)     MLTPL  1   2 (HERMSING)
     MLTPL  1   3 (HERMSING)     MLTPL  2   1 (HERMSING)     MLTPL  2   2 (HERMSING)
     MLTPL  2   3 (HERMSING)     MLTPL  2   4 (HERMSING)     MLTPL  2   5 (HERMSING)
     MLTPL  2   6 (HERMSING)     VELOCITY   1 (ANTISING)     VELOCITY   2 (ANTISING)
     VELOCITY   3 (ANTISING)     ANGMOM     1 (ANTISING)     ANGMOM     2 (ANTISING)
     ANGMOM     3 (ANTISING)     MLTPV  2   1 (ANTISING)     MLTPV  2   2 (ANTISING)
     MLTPV  2   3 (ANTISING)     MLTPV  2   4 (ANTISING)     MLTPV  2   5 (ANTISING)
     MLTPV  2   6 (ANTISING)
 
       EIGENSTATES OF A SPIN-FREE HAMILTONIAN WILL BE COMPUTED BASED ON:
 
  a Hamiltonian matrix assumed to be diagonal with energies read from the wavefu
 nction file(s).
 
  Nr of states:                     2
 
   State:        1   2
  JobIph:        1   2
 Root nr:        1   1
 
  HAMILTONIAN MATRIX FOR THE ORIGINAL STATES:
 
  Diagonal, with energies
   -514.54474352   -514.40093910
 
      OVERLAP MATRIX FOR THE ORIGINAL STATES:
 
  Diagonal, with elements
      1.00000000      1.00000000
 
++ Matrix elements for input states
   --------------------------------
 
  MATRIX ELEMENTS OF 1-ELECTRON OPERATORS
  FOR THE RASSCF INPUT WAVE FUNCTIONS:
 
 
 PROPERTY: MLTPL  0   COMPONENT:*   1
 ORIGIN    :   0.00000000D+00   0.00000000D+00   0.00000000D+00
 STATE     :       1                2
 
     1         1.00000000     -0.550774704E-16
     2       -0.550774704E-16   1.00000000    
 
 
 PROPERTY: MLTPL  1   COMPONENT:*   1
 ORIGIN    :   0.00000000D+00   0.00000000D+00   0.00000000D+00
 STATE     :       1                2
 
     1       -0.657373588E-07 -0.106652823E-25
     2       -0.106652823E-25 -0.535153262E-07
 
 
 PROPERTY: MLTPL  1   COMPONENT:*   2
 ORIGIN    :   0.00000000D+00   0.00000000D+00   0.00000000D+00
 STATE     :       1                2
 
     1        0.133644207E-10 -0.900280575E-27
     2       -0.900280575E-27  0.252734722E-09
 
 
 PROPERTY: MLTPL  1   COMPONENT:*   3
 ORIGIN    :   0.00000000D+00   0.00000000D+00   0.00000000D+00
 STATE     :       1                2
 
     1        0.304674476      0.212854840E-15
     2        0.212854840E-15 -0.528090170    
 
 
 PROPERTY: MLTPL  2   COMPONENT:*   1
 ORIGIN    :   0.00000000D+00   0.00000000D+00   0.22385814D-02
 STATE     :       1                2
 
     1        -21.9578365     -0.912500519E-16
     2       -0.912500519E-16  -21.5615194    
 
 
 PROPERTY: MLTPL  2   COMPONENT:*   2
 ORIGIN    :   0.00000000D+00   0.00000000D+00   0.22385814D-02
 STATE     :       1                2
 
     1        0.143751399E-06 -0.641246631E-24
     2       -0.641246631E-24 -0.196933404E-06
 
 
 PROPERTY: MLTPL  2   COMPONENT:*   3
 ORIGIN    :   0.00000000D+00   0.00000000D+00   0.22385814D-02
 STATE     :       1                2
 
     1       -0.139559429E-06  0.221273115E-24
     2        0.221273115E-24 -0.819022801E-07
 
 
 PROPERTY: MLTPL  2   COMPONENT:*   4
 ORIGIN    :   0.00000000D+00   0.00000000D+00   0.22385814D-02
 STATE     :       1                2
 
     1        -17.2598783      0.312718528E-17
     2        0.312718528E-17  -18.5166882    
 
 
 PROPERTY: MLTPL  2   COMPONENT:*   5
 ORIGIN    :   0.00000000D+00   0.00000000D+00   0.22385814D-02
 STATE     :       1                2
 
     1       -0.233573161E-10 -0.134041758E-25
     2       -0.134041758E-25  0.207011652E-08
 
 
 PROPERTY: MLTPL  2   COMPONENT:*   6
 ORIGIN    :   0.00000000D+00   0.00000000D+00   0.22385814D-02
 STATE     :       1                2
 
     1        -16.6754536     -0.558519856E-15
     2       -0.558519856E-15  -16.0826935    
 
 
 PROPERTY: VELOCITY   COMPONENT:*   1
 ORIGIN    :   0.00000000D+00   0.00000000D+00   0.00000000D+00
 STATE     :       1                2
 
     1       -0.274332689E-16 -0.589488593E-25
     2        0.589488593E-25 -0.588470231E-17
 
 
 PROPERTY: VELOCITY   COMPONENT:*   2
 ORIGIN    :   0.00000000D+00   0.00000000D+00   0.00000000D+00
 STATE     :       1                2
 
     1        0.229210201E-16  0.751076278E-26
     2       -0.751076278E-26  0.325841962E-16
 
 
 PROPERTY: VELOCITY   COMPONENT:*   3
 ORIGIN    :   0.00000000D+00   0.00000000D+00   0.00000000D+00
 STATE     :       1                2
 
     1       -0.571266587E-16 -0.262895046E-16
     2        0.262895046E-16  0.222759858E-16
 
 
 PROPERTY: ANGMOM     COMPONENT:*   1
 ORIGIN    :   0.00000000D+00   0.00000000D+00   0.00000000D+00
 STATE     :       1                2
 
     1        0.821737556E-16 -0.443373894E-25
     2        0.443373894E-25 -0.431218706E-16
 
 
 PROPERTY: ANGMOM     COMPONENT:*   2
 ORIGIN    :   0.00000000D+00   0.00000000D+00   0.00000000D+00
 STATE     :       1                2
 
     1        0.697082654E-16  0.625446894E-25
     2       -0.625446894E-25  0.490684298E-17
 
 
 PROPERTY: ANGMOM     COMPONENT:*   3
 ORIGIN    :   0.00000000D+00   0.00000000D+00   0.00000000D+00
 STATE     :       1                2
 
     1        0.817561853E-16 -0.943450399E-24
     2        0.943450399E-24  0.256692681E-16
 
 
 PROPERTY: MLTPV  2   COMPONENT:*   1
 ORIGIN    :   0.00000000D+00   0.00000000D+00   0.22385814D-02
 STATE     :       1                2
 
     1        0.603202346E-16 -0.653991651E-16
     2        0.653991651E-16 -0.132626983E-15
 
 
 PROPERTY: MLTPV  2   COMPONENT:*   2
 ORIGIN    :   0.00000000D+00   0.00000000D+00   0.22385814D-02
 STATE     :       1                2
 
     1       -0.678745756E-16  0.275344525E-25
     2       -0.275344525E-25  0.234185421E-16
 
 
 PROPERTY: MLTPV  2   COMPONENT:*   3
 ORIGIN    :   0.00000000D+00   0.00000000D+00   0.22385814D-02
 STATE     :       1                2
 
     1        0.296624948E-16  0.129801459E-24
     2       -0.129801459E-24  0.121696822E-16
 
 
 PROPERTY: MLTPV  2   COMPONENT:*   4
 ORIGIN    :   0.00000000D+00   0.00000000D+00   0.22385814D-02
 STATE     :       1                2
 
     1        0.875071334E-16 -0.533940600E-16
     2        0.533940600E-16 -0.259065338E-15
 
 
 PROPERTY: MLTPV  2   COMPONENT:*   5
 ORIGIN    :   0.00000000D+00   0.00000000D+00   0.22385814D-02
 STATE     :       1                2
 
     1       -0.509796404E-16  0.230820970E-27
     2       -0.230820970E-27 -0.313524943E-16
 
 
 PROPERTY: MLTPV  2   COMPONENT:*   6
 ORIGIN    :   0.00000000D+00   0.00000000D+00   0.22385814D-02
 STATE     :       1                2
 
     1        0.379058718E-15 -0.111862489E-15
     2        0.111862489E-15 -0.726141076E-16
 
--
 
::    RASSI State    1     Total energy:    -514.54474352177886
::    RASSI State    2     Total energy:    -514.40093909614916
 
 
 
      ****************************************************************************************************
      *                                                                                                  *
      *                                         Spin-free section                                        *
      *                                                                                                  *
      *                 Note: index according to input order, order according to energy.                 *
      *                                                                                                  *
      ****************************************************************************************************
 
 
 
  SPIN-FREE ENERGIES:
  (Shifted by EMIN (a.u.) =       -514.5447435218)
 
 SF State       Relative EMIN(au)   Rel lowest level(eV)    D:o, cm**(-1)
 
     1             0.0000000000        0.0000000000              0.0000
     2             0.1438044256        3.9131177697          31561.4233
 
++ Dipole transition strengths (spin-free states):
   -----------------------------------------------
     for osc. strength at least  1.00000000E-05
 
  ( Max oscillator strength is only   4.343582258464068E-033 )
--
 
++ Velocity transition strengths (spin-free states):
   -------------------------------------------------
     for osc. strength at least  1.00000000E-05
 
  ( Max oscillator strength is only   3.204064830531048E-033 )
--
 
++ Length and velocity gauge comparison (spin-free states):
   --------------------------------------------------------
 
 --------------------------------------------------
 A comparison between the dipole oscillator strengths in 
 length and velocity gauge will be performed
 
     All dipole oscillator differences above the tolerance of   1.00000000E-01  will be printed 
 
 Due to basis set deficiency these oscillator may be problematic 
 
 The tolerance is defined as ABS(1-O_l/O_v) 
 O_l : dipole oscillator strength in length gauge
 O_p : dipole oscillator strength in velocity gauge
 --------------------------------------------------
 
 No problematic oscillator strengths above the tolerance 
  0.100000000000000       have been found
 
--
 
 Electric-dipole - electric-octupole not included
 Electric-dipole - magnetic-quadrupole not included
 
 
      ****************************************************************************************************
      *                                                                                                  *
      *                                    Special properties section                                    *
      *                                                                                                  *
      ****************************************************************************************************
 
 
++ I/O STATISTICS
 
  I. General I/O information
  - - - - - - - - - - - - - - - - - - - - - - - - - - - - - - - - - - - - - - - - - - -
  Unit  Name          Flsize      Write/Read            MBytes           Write/Read
                      (MBytes)       Calls              In/Out           Time, sec.
  - - - - - - - - - - - - - - - - - - - - - - - - - - - - - - - - - - - - - - - - - - -
   1  ANNI              0.00 .       0/       0 .      0.0/      0.0 .       0/       0
   2  RUNFILE           0.36 .     161/    1227 .      1.1/      8.9 .       0/       0
   3  ONEINT            1.70 .       0/     331 .      0.0/    240.0 .       0/       0
   4  JOB001            1.38 .       0/      39 .      0.0/      1.1 .       0/       0
   5  JOB002            1.38 .       0/      39 .      0.0/      1.1 .       0/       0
   6  TDMFILE           0.19 .       9/       6 .      0.2/      0.1 .       0/       0
  - - - - - - - - - - - - - - - - - - - - - - - - - - - - - - - - - - - - - - - - - - -
   *  TOTAL             5.01 .     170/    1642 .      1.3/    251.3 .       0/       0
  - - - - - - - - - - - - - - - - - - - - - - - - - - - - - - - - - - - - - - - - - - -
 
  II. I/O Access Patterns
  - - - - - - - - - - - - - - - - - - - -
  Unit  Name               % of random
                         Write/Read calls
  - - - - - - - - - - - - - - - - - - - -
   1  ANNI                 0.0/   0.0
   2  RUNFILE             28.6/  10.6
   3  ONEINT               0.0/  74.9
   4  JOB001               0.0/  82.1
   5  JOB002               0.0/  82.1
   6  TDMFILE             88.9/ 100.0
  - - - - - - - - - - - - - - - - - - - -
--
--- Stop Module: rassi at Wed May 29 11:48:16 2024 /rc=_RC_ALL_IS_WELL_ ---

>>> COPY MOLCAS.rassi.h5 MOLCAS.rassi.trd2.h5

>>> COPY MOLCAS.rassi.h5.bak MOLCAS.rassi.h5

>>> COPY MOLCAS.rassi.h5.bak MOLCAS.rassi.h5

.##################.
.# Happy landing! #.
.##################.

    Timing: Wall=26.32 User=21.71 System=4.13
