 argument  1 = nwchem.inp
                                         
                                         
 
 
             Northwest Computational Chemistry Package (NWChem) 7.2.2
             --------------------------------------------------------
 
 
                    Environmental Molecular Sciences Laboratory
                       Pacific Northwest National Laboratory
                                Richland, WA 99352
 
                              Copyright (c) 1994-2022
                       Pacific Northwest National Laboratory
                            Battelle Memorial Institute
 
             NWChem is an open-source computational chemistry package
                        distributed under the terms of the
                      Educational Community License (ECL) 2.0
             A copy of the license is included with this distribution
                              in the LICENSE.TXT file
 
                                  ACKNOWLEDGMENT
                                  --------------

            This software and its documentation were developed at the
            EMSL at Pacific Northwest National Laboratory, a multiprogram
            national laboratory, operated for the U.S. Department of Energy
            by Battelle under Contract Number DE-AC05-76RL01830. Support
            for this work was provided by the Department of Energy Office
            of Biological and Environmental Research, Office of Basic
            Energy Sciences, and the Office of Advanced Scientific Computing.


           Job information
           ---------------

    hostname        = manganese.itc.univie.ac.at
    program         = /gpfs/data/sascha/nwchem/bin/nwchem
    date            = Wed Apr 24 13:18:36 2024

    compiled        = Mon_Mar_25_18:13:05_2024
    source          = /gpfs/data/sascha/nwchem/nwchem-7.2.2
    nwchem branch   = 7.2.2
    nwchem revision = 74936fb9
    ga revision     = 5.8.0
    use scalapack   = F
    input           = nwchem.inp
    prefix          = nwchem.
    data base       = ./nwchem.db
    status          = startup
    nproc           =        7
    time left       =     -1s



           Memory information
           ------------------

    heap     =  327679996 doubles =   2500.0 Mbytes
    stack    =  327680001 doubles =   2500.0 Mbytes
    global   =  655360000 doubles =   5000.0 Mbytes (distinct from heap & stack)
    total    = 1310719997 doubles =  10000.0 Mbytes
    verify   = yes
    hardfail = no 


           Directory information
           ---------------------
 
  0 permanent = .
  0 scratch   = .
 
 
 
 
                                NWChem Input Module
                                -------------------
 
 

          ------
          auto-z
          ------
  autoz: The atoms group into disjoint clusters
 cluster   1:    1    2    3    4    5    6 
 cluster   2:    7    8    9   10   11   12 
     1 autoz failed with cvr_scaling = 1.2 changing to 1.3
  autoz: The atoms group into disjoint clusters
 cluster   1:    1    2    3    4    5    6 
 cluster   2:    7    8    9   10   11   12 
     2 autoz failed with cvr_scaling = 1.3 changing to 1.4
  autoz: The atoms group into disjoint clusters
 cluster   1:    1    2    3    4    5    6 
 cluster   2:    7    8    9   10   11   12 
     3 autoz failed with cvr_scaling = 1.4 changing to 1.5
  autoz: The atoms group into disjoint clusters
 cluster   1:    1    2    3    4    5    6 
 cluster   2:    7    8    9   10   11   12 
 Clusters   1   2 closest atoms are    1    7 r = 8.50 ... close but too far?
     4 autoz failed with cvr_scaling = 1.5 changing to 1.6
  autoz: The atoms group into disjoint clusters
 cluster   1:    1    2    3    4    5    6 
 cluster   2:    7    8    9   10   11   12 
 Clusters   1   2 closest atoms are    1    7 r = 8.50 ... close but too far?
     5 autoz failed with cvr_scaling = 1.6 changing to 1.7
  autoz: The atoms group into disjoint clusters
 cluster   1:    1    2    3    4    5    6 
 cluster   2:    7    8    9   10   11   12 
 Clusters   1   2 closest atoms are    1    7 r = 8.50 ... close but too far?

 AUTOZ failed to generate good internal coordinates.
 Cartesian coordinates will be used in optimizations.

 
 
                             Geometry "geometry" -> ""
                             -------------------------
 
 Output coordinates in a.u. (scale by  1.000000000 to convert to a.u.)
 
  No.       Tag          Charge          X              Y              Z
 ---- ---------------- ---------- -------------- -------------- --------------
    1 C                    6.0000     0.00000000     0.00000000     0.00000000
    2 C                    6.0000     1.89142285    -1.59419926     0.00000000
    3 H                    1.0000     3.82854896    -0.89396743     0.00000000
    4 H                    1.0000     1.52927836    -3.62191559     0.00000000
    5 H                    1.0000     0.36214449     2.02771633     0.00000000
    6 H                    1.0000    -1.93712609    -0.70023184     0.00000000
    7 C                    6.0000     0.00000000     0.00000000    16.06267206
    8 C                    6.0000     1.89142285    -1.59419926    16.06267206
    9 H                    1.0000     3.82854896    -0.89396743    16.06267206
   10 H                    1.0000     1.52927836    -3.62191559    16.06267206
   11 H                    1.0000     0.36214449     2.02771633    16.06267206
   12 H                    1.0000    -1.93712609    -0.70023184    16.06267206
 
      Atomic Mass 
      ----------- 
 
      C                 12.000000
      H                  1.007825
 

 Effective nuclear repulsion energy (a.u.)      83.0612838028

            Nuclear Dipole moment (a.u.) 
            ----------------------------
        X                 Y               Z
 ---------------- ---------------- ----------------
    30.2627656840   -25.5071882080   257.0027528960
 
 
            XYZ format geometry
            -------------------
    12
 geometry
 C                     0.00000000     0.00000000     0.00000000
 C                     1.00089794    -0.84361398     0.00000000
 H                     2.02598101    -0.47306722     0.00000000
 H                     0.80925932    -1.91663533     0.00000000
 H                     0.19163862     1.07302135     0.00000000
 H                    -1.02508305    -0.37054676     0.00000000
 C                     0.00000000     0.00000000     8.50000061
 C                     1.00089794    -0.84361398     8.50000061
 H                     2.02598101    -0.47306722     8.50000061
 H                     0.80925932    -1.91663533     8.50000061
 H                     0.19163862     1.07302135     8.50000061
 H                    -1.02508305    -0.37054676     8.50000061
 
 ==============================================================================
                                internuclear distances
 ------------------------------------------------------------------------------
       center one      |      center two      | atomic units |       a.u.
 ------------------------------------------------------------------------------
    2 C                |   1 C                |     2.47365  |     2.47365
    3 H                |   2 C                |     2.05980  |     2.05980
    4 H                |   2 C                |     2.05980  |     2.05980
    5 H                |   1 C                |     2.05980  |     2.05980
    6 H                |   1 C                |     2.05980  |     2.05980
    8 C                |   7 C                |     2.47365  |     2.47365
    9 H                |   8 C                |     2.05980  |     2.05980
   10 H                |   8 C                |     2.05980  |     2.05980
   11 H                |   7 C                |     2.05980  |     2.05980
   12 H                |   7 C                |     2.05980  |     2.05980
 ------------------------------------------------------------------------------
                         number of included internuclear distances:         10
 ==============================================================================



 ==============================================================================
                                 internuclear angles
 ------------------------------------------------------------------------------
        center 1       |       center 2       |       center 3       |  degrees
 ------------------------------------------------------------------------------
    2 C                |   1 C                |   5 H                |   120.00
    2 C                |   1 C                |   6 H                |   120.00
    5 H                |   1 C                |   6 H                |   120.00
    1 C                |   2 C                |   3 H                |   120.00
    1 C                |   2 C                |   4 H                |   120.00
    3 H                |   2 C                |   4 H                |   120.00
    8 C                |   7 C                |  11 H                |   120.00
    8 C                |   7 C                |  12 H                |   120.00
   11 H                |   7 C                |  12 H                |   120.00
    7 C                |   8 C                |   9 H                |   120.00
    7 C                |   8 C                |  10 H                |   120.00
    9 H                |   8 C                |  10 H                |   120.00
 ------------------------------------------------------------------------------
                            number of included internuclear angles:         12
 ==============================================================================





 Summary of "ao basis" -> "" (spherical)
 ------------------------------------------------------------------------------
       Tag                 Description            Shells   Functions and Types
 ---------------- ------------------------------  ------  ---------------------
 *                          def2-svp                  on all atoms 


 tddft_input: filename not found; default name will be used
 
                                 NWChem DFT Module
                                 -----------------
 
 
                      Basis "ao basis" -> "ao basis" (spherical)
                      -----
  C (Carbon)
  ----------
            Exponent  Coefficients 
       -------------- ---------------------------------------------------------
  1 S  1.23840169E+03  0.005457
  1 S  1.86290050E+02  0.040638
  1 S  4.22511763E+01  0.180256
  1 S  1.16765579E+01  0.463151
  1 S  3.59305065E+00  0.440872
 
  2 S  4.02451474E-01  1.000000
 
  3 S  1.30901827E-01  1.000000
 
  4 P  9.46809706E+00  0.038388
  4 P  2.01035451E+00  0.211170
  4 P  5.47710047E-01  0.513282
 
  5 P  1.52686138E-01  1.000000
 
  6 D  8.00000000E-01  1.000000
 
  H (Hydrogen)
  ------------
            Exponent  Coefficients 
       -------------- ---------------------------------------------------------
  1 S  1.30107010E+01  0.019682
  1 S  1.96225720E+00  0.137965
  1 S  4.44537960E-01  0.478319
 
  2 S  1.21949620E-01  1.000000
 
  3 P  8.00000000E-01  1.000000
 


 Summary of "ao basis" -> "ao basis" (spherical)
 ------------------------------------------------------------------------------
       Tag                 Description            Shells   Functions and Types
 ---------------- ------------------------------  ------  ---------------------
 C                          def2-svp                 6       14   3s2p1d
 H                          def2-svp                 3        5   2s1p




 Summary of "ao basis" -> "ao basis" (spherical)
 ------------------------------------------------------------------------------
       Tag                 Description            Shells   Functions and Types
 ---------------- ------------------------------  ------  ---------------------
 C                          def2-svp                 6       14   3s2p1d
 H                          def2-svp                 3        5   2s1p


  Caching 1-el integrals 
 
            General Information
            -------------------
          SCF calculation type: DFT
          Wavefunction type:  spin polarized.
          No. of atoms     :    12
          No. of electrons :    31
           Alpha electrons :    16
            Beta electrons :    15
          Charge           :     1
          Spin multiplicity:     2
          Use of symmetry is: off; symmetry adaption is: off
          Maximum number of iterations:  50
          AO basis - number of functions:    96
                     number of shells:    48
          Convergence on energy requested:  1.00D-06
          Convergence on density requested:  1.00D-05
          Convergence on gradient requested:  5.00D-04
 
              XC Information
              --------------
                         B3LYP Method XC Potential
                     Hartree-Fock (Exact) Exchange  0.200          
                        Slater Exchange Functional  0.800 local    
                    Becke 1988 Exchange Functional  0.720 non-local
              Lee-Yang-Parr Correlation Functional  0.810          
                  VWN I RPA Correlation Functional  0.190 local    
 
             Grid Information
             ----------------
          Grid used for XC integration:  medium    
          Radial quadrature: Mura-Knowles        
          Angular quadrature: Lebedev. 
          Tag              B.-S. Rad. Rad. Pts. Rad. Cut. Ang. Pts.
          ---              ---------- --------- --------- ---------
          C                   0.70       49           7.0       434
          H                   0.35       45           9.0       434
          Grid pruning is: on 
          Number of quadrature shells:   556
          Spatial weights used:  Erf1
 
          Convergence Information
          -----------------------
          Convergence aids based upon iterative change in 
          total energy or number of iterations. 
          Levelshifting, if invoked, occurs when the 
          HOMO/LUMO gap drops below (HL_TOL):  1.00D-02
          DIIS, if invoked, will attempt to extrapolate 
          using up to (NFOCK): 10 stored Fock matrices.

                    Damping( 0%)  Levelshifting(0.5)       DIIS
                  --------------- ------------------- ---------------
          dE  on:    start            ASAP                start   
          dE off:    2 iters         50 iters            50 iters 

 
      Screening Tolerance Information
      -------------------------------
          Density screening/tol_rho:  1.00D-10
          AO Gaussian exp screening on grid/accAOfunc:  14
          CD Gaussian exp screening on grid/accCDfunc:  20
          XC Gaussian exp screening on grid/accXCfunc:  20
          Schwarz screening/accCoul:  1.00D-08

 
      Superposition of Atomic Density Guess
      -------------------------------------
 
 Sum of atomic energies:        -154.49347418

 Renormalizing density from      32.00 to     31
 
      Non-variational initial energy
      ------------------------------

 Total energy =    -153.260050
 1-e energy   =    -356.956927
 2-e energy   =     120.635594
 HOMO         =      -0.593458
 LUMO         =      -0.225854
 
  WARNING: movecs_in_org=atomic not equal to movecs_in=./nwchem.movecs
   Time after variat. SCF:      0.1
   Time prior to 1st pass:      0.1

 Integral file          = ./nwchem.aoints.0
 Record size in doubles =    65536    No. of integs per rec  =    43688
 Max. records in memory =       51    Max. records in file   = 18380846
 No. of bits per label  =        8    No. of bits per value  =       64


 #quartets = 2.054D+05 #integrals = 2.099D+06 #direct =  0.0% #cached =100.0%


File balance: exchanges=     0  moved=     0  time=   0.0


 Grid_pts file          = ./nwchem.gridpts.0
 Record size in doubles =  12289        No. of grid_pts per rec  =   3070
 Max. records in memory =     14        Max. recs in file   =  98023206


           Memory utilization after 1st SCF pass: 
           Heap Space remaining (MW):      324.16           324160532
          Stack Space remaining (MW):      327.68           327678748

   convergence    iter        energy       DeltaE   RMS-Dens  Diis-err    time
 ---------------- ----- ----------------- --------- --------- ---------  ------
 d= 0,ls=0.0,diis     1   -156.6623954392 -2.40D+02  3.51D-03  1.16D-01     0.5
                                                     3.76D-03  1.21D-01
 d= 0,ls=0.0,diis     2   -156.6928840269 -3.05D-02  1.67D-03  3.78D-02     0.7
                                                     1.57D-03  3.32D-02
 d= 0,ls=0.0,diis     3   -156.7102686544 -1.74D-02  4.07D-04  3.52D-03     0.9
                                                     4.29D-04  3.62D-03
 d= 0,ls=0.0,diis     4   -156.7123052545 -2.04D-03  2.83D-05  1.12D-05     1.2
                                                     1.08D-04  6.13D-06
 d= 0,ls=0.0,diis     5   -156.7122550922  5.02D-05  9.77D-06  3.88D-05     1.4
                                                     2.23D-04  5.96D-05
  Resetting Diis
 d= 0,ls=0.0,diis     6   -156.7122272591  2.78D-05  6.96D-06  5.83D-05     1.6
                                                     1.23D-04  8.94D-05
 d= 0,ls=0.0,diis     7   -156.7123107682 -8.35D-05  1.59D-06  1.75D-08     1.9
                                                     6.17D-06  1.60D-08
 d= 0,ls=0.0,diis     8   -156.7123106098  1.58D-07  5.70D-07  1.29D-07     2.1
                                                     1.29D-05  1.96D-07
 d= 0,ls=0.0,diis     9   -156.7123105029  1.07D-07  9.37D-07  2.04D-07     2.3
                                                     7.28D-06  3.10D-07


         Total DFT energy =     -156.712310502857
      One electron energy =     -366.836397418122
           Coulomb energy =      151.342642148393
    Exchange-Corr. energy =      -24.279839035947
 Nuclear repulsion energy =       83.061283802819

 Numeric. integr. density =       30.999998528204

     Total iterative time =      2.2s


 
                    DFT Final Alpha Molecular Orbital Analysis
                    ------------------------------------------
 
 Vector    1  Occ=1.000000D+00  E=-1.039212D+01
              MO Center=  5.0D-01, -4.2D-01,  1.0D-06, r^2= 4.6D-01
   Bfn.  Coefficient  Atom+Function         Bfn.  Coefficient  Atom+Function  
  ----- ------------  ---------------      ----- ------------  ---------------
     1      0.699021   1 C  s                15      0.699021   2 C  s         
     2      0.030493   1 C  s                16      0.030493   2 C  s         
 
 Vector    2  Occ=1.000000D+00  E=-1.039212D+01
              MO Center=  5.0D-01, -4.2D-01,  8.5D+00, r^2= 4.6D-01
   Bfn.  Coefficient  Atom+Function         Bfn.  Coefficient  Atom+Function  
  ----- ------------  ---------------      ----- ------------  ---------------
    49      0.699021   7 C  s                63      0.699021   8 C  s         
    50      0.030493   7 C  s                64      0.030493   8 C  s         
 
 Vector    3  Occ=1.000000D+00  E=-1.039124D+01
              MO Center=  5.0D-01, -4.2D-01,  9.2D-07, r^2= 4.6D-01
   Bfn.  Coefficient  Atom+Function         Bfn.  Coefficient  Atom+Function  
  ----- ------------  ---------------      ----- ------------  ---------------
     1      0.698338   1 C  s                15     -0.698338   2 C  s         
     2      0.038192   1 C  s                16     -0.038192   2 C  s         
     3     -0.034002   1 C  s                17      0.034002   2 C  s         
 
 Vector    4  Occ=1.000000D+00  E=-1.039124D+01
              MO Center=  5.0D-01, -4.2D-01,  8.5D+00, r^2= 4.6D-01
   Bfn.  Coefficient  Atom+Function         Bfn.  Coefficient  Atom+Function  
  ----- ------------  ---------------      ----- ------------  ---------------
    49      0.698338   7 C  s                63     -0.698338   8 C  s         
    50      0.038192   7 C  s                64     -0.038192   8 C  s         
    51     -0.034002   7 C  s                65      0.034002   8 C  s         
 
 Vector    5  Occ=1.000000D+00  E=-9.670387D-01
              MO Center=  5.0D-01, -4.2D-01,  5.4D-02, r^2= 1.4D+00
   Bfn.  Coefficient  Atom+Function         Bfn.  Coefficient  Atom+Function  
  ----- ------------  ---------------      ----- ------------  ---------------
     2      0.398180   1 C  s                16      0.398180   2 C  s         
     1     -0.206339   1 C  s                15     -0.206339   2 C  s         
     4      0.106439   1 C  px               18     -0.106439   2 C  px        
     3      0.102243   1 C  s                17      0.102243   2 C  s         
    29      0.095925   3 H  s                34      0.095925   4 H  s         
 
 Vector    6  Occ=1.000000D+00  E=-9.670386D-01
              MO Center=  5.0D-01, -4.2D-01,  8.4D+00, r^2= 1.4D+00
   Bfn.  Coefficient  Atom+Function         Bfn.  Coefficient  Atom+Function  
  ----- ------------  ---------------      ----- ------------  ---------------
    50      0.398180   7 C  s                64      0.398180   8 C  s         
    49     -0.206339   7 C  s                63     -0.206339   8 C  s         
    52      0.106439   7 C  px               66     -0.106439   8 C  px        
    51      0.102243   7 C  s                65      0.102243   8 C  s         
    77      0.095925   9 H  s                82      0.095925  10 H  s         
 
 Vector    7  Occ=1.000000D+00  E=-7.524477D-01
              MO Center=  5.0D-01, -4.2D-01,  9.8D-02, r^2= 2.8D+00
   Bfn.  Coefficient  Atom+Function         Bfn.  Coefficient  Atom+Function  
  ----- ------------  ---------------      ----- ------------  ---------------
     2      0.334215   1 C  s                16     -0.334215   2 C  s         
    29     -0.185791   3 H  s                34     -0.185791   4 H  s         
    39      0.185791   5 H  s                44      0.185791   6 H  s         
     1     -0.160761   1 C  s                15      0.160761   2 C  s         
     4     -0.129300   1 C  px               18     -0.129300   2 C  px        
 
 Vector    8  Occ=1.000000D+00  E=-7.524476D-01
              MO Center=  5.0D-01, -4.2D-01,  8.4D+00, r^2= 2.8D+00
   Bfn.  Coefficient  Atom+Function         Bfn.  Coefficient  Atom+Function  
  ----- ------------  ---------------      ----- ------------  ---------------
    50      0.334215   7 C  s                64     -0.334215   8 C  s         
    77     -0.185791   9 H  s                82     -0.185791  10 H  s         
    87      0.185791  11 H  s                92      0.185791  12 H  s         
    49     -0.160761   7 C  s                63      0.160761   8 C  s         
    52     -0.129300   7 C  px               66     -0.129300   8 C  px        
 
 Vector    9  Occ=1.000000D+00  E=-6.632179D-01
              MO Center=  5.0D-01, -4.2D-01,  2.2D-02, r^2= 1.9D+00
   Bfn.  Coefficient  Atom+Function         Bfn.  Coefficient  Atom+Function  
  ----- ------------  ---------------      ----- ------------  ---------------
     5      0.262429   1 C  py               19      0.262429   2 C  py        
     4      0.221190   1 C  px               18      0.221190   2 C  px        
    29      0.194205   3 H  s                34     -0.194205   4 H  s         
    39      0.194205   5 H  s                44     -0.194205   6 H  s         
     8      0.093744   1 C  py               22      0.093744   2 C  py        
 
 Vector   10  Occ=1.000000D+00  E=-6.632178D-01
              MO Center=  5.0D-01, -4.2D-01,  8.5D+00, r^2= 1.9D+00
   Bfn.  Coefficient  Atom+Function         Bfn.  Coefficient  Atom+Function  
  ----- ------------  ---------------      ----- ------------  ---------------
    53      0.262429   7 C  py               67      0.262429   8 C  py        
    52      0.221190   7 C  px               66      0.221190   8 C  px        
    77      0.194205   9 H  s                82     -0.194205  10 H  s         
    87      0.194205  11 H  s                92     -0.194205  12 H  s         
    56      0.093744   7 C  py               70      0.093744   8 C  py        
 
 Vector   11  Occ=1.000000D+00  E=-6.097777D-01
              MO Center=  5.0D-01, -4.2D-01,  2.3D-01, r^2= 3.6D+00
   Bfn.  Coefficient  Atom+Function         Bfn.  Coefficient  Atom+Function  
  ----- ------------  ---------------      ----- ------------  ---------------
     4      0.319752   1 C  px               18     -0.319752   2 C  px        
     5     -0.269505   1 C  py               19      0.269505   2 C  py        
    29     -0.166505   3 H  s                34     -0.166505   4 H  s         
    39     -0.166505   5 H  s                44     -0.166505   6 H  s         
     7      0.094476   1 C  px               21     -0.094476   2 C  px        
 
 Vector   12  Occ=1.000000D+00  E=-6.097776D-01
              MO Center=  5.0D-01, -4.2D-01,  8.3D+00, r^2= 3.6D+00
   Bfn.  Coefficient  Atom+Function         Bfn.  Coefficient  Atom+Function  
  ----- ------------  ---------------      ----- ------------  ---------------
    52      0.319752   7 C  px               66     -0.319752   8 C  px        
    53     -0.269505   7 C  py               67      0.269505   8 C  py        
    77     -0.166505   9 H  s                82     -0.166505  10 H  s         
    87     -0.166505  11 H  s                92     -0.166505  12 H  s         
    55      0.094476   7 C  px               69     -0.094476   8 C  px        
 
 Vector   13  Occ=1.000000D+00  E=-5.351543D-01
              MO Center=  5.0D-01, -4.2D-01,  1.3D-01, r^2= 3.3D+00
   Bfn.  Coefficient  Atom+Function         Bfn.  Coefficient  Atom+Function  
  ----- ------------  ---------------      ----- ------------  ---------------
    29     -0.265305   3 H  s                34      0.265305   4 H  s         
    39      0.265305   5 H  s                44     -0.265305   6 H  s         
     5      0.246300   1 C  py               19     -0.246300   2 C  py        
     4      0.207596   1 C  px               18     -0.207596   2 C  px        
    30     -0.120573   3 H  s                35      0.120573   4 H  s         
 
 Vector   14  Occ=1.000000D+00  E=-5.351542D-01
              MO Center=  5.0D-01, -4.2D-01,  8.4D+00, r^2= 3.3D+00
   Bfn.  Coefficient  Atom+Function         Bfn.  Coefficient  Atom+Function  
  ----- ------------  ---------------      ----- ------------  ---------------
    77     -0.265305   9 H  s                82      0.265305  10 H  s         
    87      0.265305  11 H  s                92     -0.265305  12 H  s         
    53      0.246300   7 C  py               67     -0.246300   8 C  py        
    52      0.207596   7 C  px               66     -0.207596   8 C  px        
    78     -0.120573   9 H  s                83      0.120573  10 H  s         
 
 Vector   15  Occ=1.000000D+00  E=-4.906387D-01
              MO Center=  5.0D-01, -4.2D-01,  2.2D+00, r^2= 1.5D+01
   Bfn.  Coefficient  Atom+Function         Bfn.  Coefficient  Atom+Function  
  ----- ------------  ---------------      ----- ------------  ---------------
     6      0.371404   1 C  pz               20      0.371404   2 C  pz        
    54     -0.222084   7 C  pz               68     -0.222084   8 C  pz        
     9      0.215794   1 C  pz               23      0.215794   2 C  pz        
    57     -0.129036   7 C  pz               71     -0.129036   8 C  pz        
 
 Vector   16  Occ=1.000000D+00  E=-4.906384D-01
              MO Center=  5.0D-01, -4.2D-01,  6.3D+00, r^2= 1.5D+01
   Bfn.  Coefficient  Atom+Function         Bfn.  Coefficient  Atom+Function  
  ----- ------------  ---------------      ----- ------------  ---------------
    54      0.371404   7 C  pz               68      0.371404   8 C  pz        
     6      0.222085   1 C  pz               20      0.222085   2 C  pz        
    57      0.215793   7 C  pz               71      0.215793   8 C  pz        
     9      0.129035   1 C  pz               23      0.129035   2 C  pz        
 
 Vector   17  Occ=0.000000D+00  E=-1.861868D-01
              MO Center=  5.0D-01, -4.2D-01,  2.8D+00, r^2= 1.8D+01
   Bfn.  Coefficient  Atom+Function         Bfn.  Coefficient  Atom+Function  
  ----- ------------  ---------------      ----- ------------  ---------------
     9      0.493509   1 C  pz               23     -0.493509   2 C  pz        
     6      0.377882   1 C  pz               20     -0.377882   2 C  pz        
    57     -0.342757   7 C  pz               71      0.342757   8 C  pz        
    54     -0.262450   7 C  pz               68      0.262450   8 C  pz        
 
 Vector   18  Occ=0.000000D+00  E=-1.861864D-01
              MO Center=  5.0D-01, -4.2D-01,  5.7D+00, r^2= 1.8D+01
   Bfn.  Coefficient  Atom+Function         Bfn.  Coefficient  Atom+Function  
  ----- ------------  ---------------      ----- ------------  ---------------
    57      0.493508   7 C  pz               71     -0.493508   8 C  pz        
    54      0.377883   7 C  pz               68     -0.377883   8 C  pz        
     9      0.342755   1 C  pz               23     -0.342755   2 C  pz        
     6      0.262451   1 C  pz               20     -0.262451   2 C  pz        
 
 Vector   19  Occ=0.000000D+00  E=-6.568129D-02
              MO Center=  5.0D-01, -4.2D-01,  4.1D+00, r^2= 2.3D+01
   Bfn.  Coefficient  Atom+Function         Bfn.  Coefficient  Atom+Function  
  ----- ------------  ---------------      ----- ------------  ---------------
     3      0.947326   1 C  s                17      0.947326   2 C  s         
    51      0.922333   7 C  s                65      0.922333   8 C  s         
    30     -0.694470   3 H  s                35     -0.694471   4 H  s         
    40     -0.694471   5 H  s                45     -0.694470   6 H  s         
    78     -0.676149   9 H  s                83     -0.676149  10 H  s         
 
 Vector   20  Occ=0.000000D+00  E=-6.567865D-02
              MO Center=  5.0D-01, -4.2D-01,  4.4D+00, r^2= 2.3D+01
   Bfn.  Coefficient  Atom+Function         Bfn.  Coefficient  Atom+Function  
  ----- ------------  ---------------      ----- ------------  ---------------
    51     -0.947327   7 C  s                65     -0.947327   8 C  s         
     3      0.922334   1 C  s                17      0.922334   2 C  s         
    78      0.694470   9 H  s                83      0.694469  10 H  s         
    88      0.694469  11 H  s                93      0.694470  12 H  s         
    30     -0.676148   3 H  s                35     -0.676148   4 H  s         
 
 Vector   21  Occ=0.000000D+00  E=-4.724231D-02
              MO Center=  5.0D-01, -4.2D-01,  4.1D+00, r^2= 2.3D+01
   Bfn.  Coefficient  Atom+Function         Bfn.  Coefficient  Atom+Function  
  ----- ------------  ---------------      ----- ------------  ---------------
    30      0.714069   3 H  s                35     -0.714069   4 H  s         
    40      0.714069   5 H  s                45     -0.714069   6 H  s         
    78      0.693607   9 H  s                83     -0.693608  10 H  s         
    88      0.693608  11 H  s                93     -0.693607  12 H  s         
     8     -0.353172   1 C  py               22     -0.353172   2 C  py        
 
 Vector   22  Occ=0.000000D+00  E=-4.723970D-02
              MO Center=  5.0D-01, -4.2D-01,  4.4D+00, r^2= 2.3D+01
   Bfn.  Coefficient  Atom+Function         Bfn.  Coefficient  Atom+Function  
  ----- ------------  ---------------      ----- ------------  ---------------
    78     -0.714065   9 H  s                83      0.714064  10 H  s         
    88     -0.714064  11 H  s                93      0.714065  12 H  s         
    30      0.693603   3 H  s                35     -0.693603   4 H  s         
    40      0.693603   5 H  s                45     -0.693603   6 H  s         
    56      0.353169   7 C  py               70      0.353169   8 C  py        
 
 Vector   23  Occ=0.000000D+00  E=-2.366006D-02
              MO Center=  5.0D-01, -4.2D-01,  4.1D+00, r^2= 2.4D+01
   Bfn.  Coefficient  Atom+Function         Bfn.  Coefficient  Atom+Function  
  ----- ------------  ---------------      ----- ------------  ---------------
     3      1.494433   1 C  s                17     -1.494433   2 C  s         
    51      1.444696   7 C  s                65     -1.444696   8 C  s         
    30      0.797203   3 H  s                35      0.797202   4 H  s         
    40     -0.797202   5 H  s                45     -0.797203   6 H  s         
    78      0.770673   9 H  s                83      0.770672  10 H  s         
 
 Vector   24  Occ=0.000000D+00  E=-2.365807D-02
              MO Center=  5.0D-01, -4.2D-01,  4.4D+00, r^2= 2.4D+01
   Bfn.  Coefficient  Atom+Function         Bfn.  Coefficient  Atom+Function  
  ----- ------------  ---------------      ----- ------------  ---------------
    51     -1.494530   7 C  s                65      1.494530   8 C  s         
     3      1.444796   1 C  s                17     -1.444796   2 C  s         
    78     -0.797199   9 H  s                83     -0.797200  10 H  s         
    88      0.797200  11 H  s                93      0.797199  12 H  s         
    30      0.770669   3 H  s                35      0.770669   4 H  s         
 
 Vector   25  Occ=0.000000D+00  E= 4.837368D-02
              MO Center=  5.0D-01, -4.2D-01,  4.1D+00, r^2= 2.5D+01
   Bfn.  Coefficient  Atom+Function         Bfn.  Coefficient  Atom+Function  
  ----- ------------  ---------------      ----- ------------  ---------------
    30      1.052032   3 H  s                35     -1.052032   4 H  s         
    40     -1.052032   5 H  s                45      1.052032   6 H  s         
    78      1.025455   9 H  s                83     -1.025455  10 H  s         
    88     -1.025455  11 H  s                93      1.025455  12 H  s         
     8      0.727715   1 C  py               22     -0.727715   2 C  py        
 
 Vector   26  Occ=0.000000D+00  E= 4.837622D-02
              MO Center=  5.0D-01, -4.2D-01,  4.4D+00, r^2= 2.5D+01
   Bfn.  Coefficient  Atom+Function         Bfn.  Coefficient  Atom+Function  
  ----- ------------  ---------------      ----- ------------  ---------------
    78     -1.052027   9 H  s                83      1.052027  10 H  s         
    88      1.052027  11 H  s                93     -1.052027  12 H  s         
    30      1.025450   3 H  s                35     -1.025450   4 H  s         
    40     -1.025450   5 H  s                45      1.025450   6 H  s         
    56     -0.727708   7 C  py               70      0.727708   8 C  py        
 
 Vector   27  Occ=0.000000D+00  E= 1.625399D-01
              MO Center=  5.0D-01, -4.2D-01,  4.2D+00, r^2= 2.1D+01
   Bfn.  Coefficient  Atom+Function         Bfn.  Coefficient  Atom+Function  
  ----- ------------  ---------------      ----- ------------  ---------------
     3      3.516646   1 C  s                17     -3.516646   2 C  s         
    51      3.458505   7 C  s                65     -3.458505   8 C  s         
     7      1.752327   1 C  px               21      1.752327   2 C  px        
    55      1.723355   7 C  px               69      1.723355   8 C  px        
     8     -1.476961   1 C  py               22     -1.476961   2 C  py        
 
 Vector   28  Occ=0.000000D+00  E= 1.625453D-01
              MO Center=  5.0D-01, -4.2D-01,  4.3D+00, r^2= 2.1D+01
   Bfn.  Coefficient  Atom+Function         Bfn.  Coefficient  Atom+Function  
  ----- ------------  ---------------      ----- ------------  ---------------
    51     -3.516520   7 C  s                65      3.516520   8 C  s         
     3      3.458376   1 C  s                17     -3.458376   2 C  s         
    55     -1.752293   7 C  px               69     -1.752293   8 C  px        
     7      1.723320   1 C  px               21      1.723320   2 C  px        
    56      1.476933   7 C  py               70      1.476933   8 C  py        
 
 Vector   29  Occ=0.000000D+00  E= 2.173358D-01
              MO Center=  5.0D-01, -4.2D-01,  2.9D+00, r^2= 1.9D+01
   Bfn.  Coefficient  Atom+Function         Bfn.  Coefficient  Atom+Function  
  ----- ------------  ---------------      ----- ------------  ---------------
     2      0.595312   1 C  s                16      0.595312   2 C  s         
     3     -0.547678   1 C  s                17     -0.547678   2 C  s         
     7     -0.479489   1 C  px               21      0.479489   2 C  px        
    50      0.423573   7 C  s                64      0.423573   8 C  s         
     8      0.404141   1 C  py               22     -0.404141   2 C  py        
 
 Vector   30  Occ=0.000000D+00  E= 2.173361D-01
              MO Center=  5.0D-01, -4.2D-01,  5.6D+00, r^2= 1.9D+01
   Bfn.  Coefficient  Atom+Function         Bfn.  Coefficient  Atom+Function  
  ----- ------------  ---------------      ----- ------------  ---------------
    50      0.595308   7 C  s                64      0.595308   8 C  s         
    51     -0.547668   7 C  s                65     -0.547668   8 C  s         
    55     -0.479492   7 C  px               69      0.479492   8 C  px        
     2     -0.423568   1 C  s                16     -0.423568   2 C  s         
    56      0.404143   7 C  py               70     -0.404143   8 C  py        
 
 Vector   31  Occ=0.000000D+00  E= 2.640629D-01
              MO Center=  5.0D-01, -4.2D-01,  4.0D+00, r^2= 2.1D+01
   Bfn.  Coefficient  Atom+Function         Bfn.  Coefficient  Atom+Function  
  ----- ------------  ---------------      ----- ------------  ---------------
     3      1.129234   1 C  s                17      1.129233   2 C  s         
    51      1.060140   7 C  s                65      1.060140   8 C  s         
     2     -0.443126   1 C  s                16     -0.443126   2 C  s         
    50     -0.416013   7 C  s                64     -0.416013   8 C  s         
     7     -0.364975   1 C  px               21      0.364975   2 C  px        
 
 Vector   32  Occ=0.000000D+00  E= 2.640642D-01
              MO Center=  5.0D-01, -4.2D-01,  4.5D+00, r^2= 2.1D+01
   Bfn.  Coefficient  Atom+Function         Bfn.  Coefficient  Atom+Function  
  ----- ------------  ---------------      ----- ------------  ---------------
    51     -1.129243   7 C  s                65     -1.129243   8 C  s         
     3      1.060150   1 C  s                17      1.060150   2 C  s         
    50      0.443137   7 C  s                64      0.443137   8 C  s         
     2     -0.416024   1 C  s                16     -0.416024   2 C  s         
    55      0.364971   7 C  px               69     -0.364971   8 C  px        
 
 Vector   33  Occ=0.000000D+00  E= 2.808565D-01
              MO Center=  5.0D-01, -4.2D-01,  3.4D+00, r^2= 2.0D+01
   Bfn.  Coefficient  Atom+Function         Bfn.  Coefficient  Atom+Function  
  ----- ------------  ---------------      ----- ------------  ---------------
    29      0.444954   3 H  s                34     -0.444954   4 H  s         
    39      0.444954   5 H  s                44     -0.444954   6 H  s         
    77      0.366529   9 H  s                82     -0.366529  10 H  s         
    87      0.366529  11 H  s                92     -0.366529  12 H  s         
     8     -0.258158   1 C  py               22     -0.258158   2 C  py        
 
 Vector   34  Occ=0.000000D+00  E= 2.808570D-01
              MO Center=  5.0D-01, -4.2D-01,  5.1D+00, r^2= 2.0D+01
   Bfn.  Coefficient  Atom+Function         Bfn.  Coefficient  Atom+Function  
  ----- ------------  ---------------      ----- ------------  ---------------
    77      0.444953   9 H  s                82     -0.444953  10 H  s         
    87      0.444953  11 H  s                92     -0.444953  12 H  s         
    29     -0.366528   3 H  s                34      0.366528   4 H  s         
    39     -0.366528   5 H  s                44      0.366528   6 H  s         
    56     -0.258161   7 C  py               70     -0.258161   8 C  py        
 
 Vector   35  Occ=0.000000D+00  E= 2.982988D-01
              MO Center=  5.0D-01, -4.2D-01,  4.0D+00, r^2= 2.1D+01
   Bfn.  Coefficient  Atom+Function         Bfn.  Coefficient  Atom+Function  
  ----- ------------  ---------------      ----- ------------  ---------------
     6      0.491248   1 C  pz               20      0.491248   2 C  pz        
     9     -0.459617   1 C  pz               23     -0.459617   2 C  pz        
    54     -0.458507   7 C  pz               68     -0.458507   8 C  pz        
    57      0.428984   7 C  pz               71      0.428984   8 C  pz        
     3      0.064716   1 C  s                17      0.064716   2 C  s         
 
 Vector   36  Occ=0.000000D+00  E= 2.983005D-01
              MO Center=  5.0D-01, -4.2D-01,  4.5D+00, r^2= 2.1D+01
   Bfn.  Coefficient  Atom+Function         Bfn.  Coefficient  Atom+Function  
  ----- ------------  ---------------      ----- ------------  ---------------
    54      0.491249   7 C  pz               68      0.491249   8 C  pz        
     6      0.458508   1 C  pz               20      0.458508   2 C  pz        
    57     -0.459618   7 C  pz               71     -0.459618   8 C  pz        
     9     -0.428986   1 C  pz               23     -0.428986   2 C  pz        
    51     -0.064662   7 C  s                65     -0.064662   8 C  s         
 
 Vector   37  Occ=0.000000D+00  E= 3.747104D-01
              MO Center=  5.0D-01, -4.2D-01,  4.2D+00, r^2= 2.0D+01
   Bfn.  Coefficient  Atom+Function         Bfn.  Coefficient  Atom+Function  
  ----- ------------  ---------------      ----- ------------  ---------------
     3      2.618516   1 C  s                17     -2.618516   2 C  s         
    51      2.559403   7 C  s                65     -2.559403   8 C  s         
     7      0.518400   1 C  px               21      0.518400   2 C  px        
    55      0.506697   7 C  px               69      0.506697   8 C  px        
     8     -0.436937   1 C  py               22     -0.436937   2 C  py        
 
 Vector   38  Occ=0.000000D+00  E= 3.747144D-01
              MO Center=  5.0D-01, -4.2D-01,  4.3D+00, r^2= 2.0D+01
   Bfn.  Coefficient  Atom+Function         Bfn.  Coefficient  Atom+Function  
  ----- ------------  ---------------      ----- ------------  ---------------
    51     -2.618544   7 C  s                65      2.618544   8 C  s         
     3      2.559431   1 C  s                17     -2.559431   2 C  s         
    55     -0.518407   7 C  px               69     -0.518407   8 C  px        
     7      0.506704   1 C  px               21      0.506704   2 C  px        
    56      0.436943   7 C  py               70      0.436943   8 C  py        
 
 Vector   39  Occ=0.000000D+00  E= 3.947541D-01
              MO Center=  5.0D-01, -4.2D-01,  3.8D+00, r^2= 2.2D+01
   Bfn.  Coefficient  Atom+Function         Bfn.  Coefficient  Atom+Function  
  ----- ------------  ---------------      ----- ------------  ---------------
     9      0.881659   1 C  pz               23     -0.881659   2 C  pz        
    57     -0.787851   7 C  pz               71      0.787851   8 C  pz        
     6     -0.541566   1 C  pz               20      0.541566   2 C  pz        
    54      0.483944   7 C  pz               68     -0.483944   8 C  pz        
     3     -0.199247   1 C  s                17      0.199247   2 C  s         
 
 Vector   40  Occ=0.000000D+00  E= 3.947551D-01
              MO Center=  5.0D-01, -4.2D-01,  4.7D+00, r^2= 2.2D+01
   Bfn.  Coefficient  Atom+Function         Bfn.  Coefficient  Atom+Function  
  ----- ------------  ---------------      ----- ------------  ---------------
    57      0.881668   7 C  pz               71     -0.881668   8 C  pz        
     9      0.787860   1 C  pz               23     -0.787860   2 C  pz        
    54     -0.541571   7 C  pz               68      0.541571   8 C  pz        
     6     -0.483949   1 C  pz               20      0.483949   2 C  pz        
    51      0.198985   7 C  s                65     -0.198985   8 C  s         
 
 Vector   41  Occ=0.000000D+00  E= 4.809587D-01
              MO Center=  5.0D-01, -4.2D-01,  4.0D+00, r^2= 2.2D+01
   Bfn.  Coefficient  Atom+Function         Bfn.  Coefficient  Atom+Function  
  ----- ------------  ---------------      ----- ------------  ---------------
     3      1.496636   1 C  s                17      1.496636   2 C  s         
    51      1.412678   7 C  s                65      1.412679   8 C  s         
    30     -0.781295   3 H  s                35     -0.781296   4 H  s         
    40     -0.781296   5 H  s                45     -0.781295   6 H  s         
    78     -0.737467   9 H  s                83     -0.737467  10 H  s         
 
 Vector   42  Occ=0.000000D+00  E= 4.809602D-01
              MO Center=  5.0D-01, -4.2D-01,  4.5D+00, r^2= 2.2D+01
   Bfn.  Coefficient  Atom+Function         Bfn.  Coefficient  Atom+Function  
  ----- ------------  ---------------      ----- ------------  ---------------
    51     -1.496635   7 C  s                65     -1.496636   8 C  s         
     3      1.412678   1 C  s                17      1.412678   2 C  s         
    78      0.781298   9 H  s                83      0.781297  10 H  s         
    88      0.781297  11 H  s                93      0.781298  12 H  s         
    30     -0.737469   3 H  s                35     -0.737468   4 H  s         
 
 Vector   43  Occ=0.000000D+00  E= 5.038859D-01
              MO Center=  5.0D-01, -4.2D-01,  4.1D+00, r^2= 2.2D+01
   Bfn.  Coefficient  Atom+Function         Bfn.  Coefficient  Atom+Function  
  ----- ------------  ---------------      ----- ------------  ---------------
    30      0.831412   3 H  s                35     -0.831418   4 H  s         
    40      0.831418   5 H  s                45     -0.831412   6 H  s         
    78      0.804133   9 H  s                83     -0.804139  10 H  s         
    88      0.804139  11 H  s                93     -0.804133  12 H  s         
     8     -0.738539   1 C  py               22     -0.738540   2 C  py        
 
 Vector   44  Occ=0.000000D+00  E= 5.038889D-01
              MO Center=  5.0D-01, -4.2D-01,  4.4D+00, r^2= 2.2D+01
   Bfn.  Coefficient  Atom+Function         Bfn.  Coefficient  Atom+Function  
  ----- ------------  ---------------      ----- ------------  ---------------
    78     -0.831420   9 H  s                83      0.831419  10 H  s         
    88     -0.831419  11 H  s                93      0.831420  12 H  s         
    30      0.804142   3 H  s                35     -0.804140   4 H  s         
    40      0.804140   5 H  s                45     -0.804142   6 H  s         
    56      0.738540   7 C  py               70      0.738540   8 C  py        
 
 Vector   45  Occ=0.000000D+00  E= 5.104287D-01
              MO Center=  5.0D-01, -4.2D-01,  1.6D+00, r^2= 1.6D+01
   Bfn.  Coefficient  Atom+Function         Bfn.  Coefficient  Atom+Function  
  ----- ------------  ---------------      ----- ------------  ---------------
     3      4.669804   1 C  s                17     -4.669804   2 C  s         
    51      2.271938   7 C  s                65     -2.271938   8 C  s         
    30      1.273539   3 H  s                35      1.273535   4 H  s         
    40     -1.273535   5 H  s                45     -1.273539   6 H  s         
     2     -1.266244   1 C  s                16      1.266244   2 C  s         
 
 Vector   46  Occ=0.000000D+00  E= 5.104288D-01
              MO Center=  5.0D-01, -4.2D-01,  6.9D+00, r^2= 1.6D+01
   Bfn.  Coefficient  Atom+Function         Bfn.  Coefficient  Atom+Function  
  ----- ------------  ---------------      ----- ------------  ---------------
    51      4.669810   7 C  s                65     -4.669810   8 C  s         
     3     -2.271950   1 C  s                17      2.271950   2 C  s         
    78      1.273538   9 H  s                83      1.273537  10 H  s         
    88     -1.273537  11 H  s                93     -1.273538  12 H  s         
    50     -1.266246   7 C  s                64      1.266246   8 C  s         
 
 Vector   47  Occ=0.000000D+00  E= 5.228966D-01
              MO Center=  5.0D-01, -4.2D-01,  4.0D+00, r^2= 2.2D+01
   Bfn.  Coefficient  Atom+Function         Bfn.  Coefficient  Atom+Function  
  ----- ------------  ---------------      ----- ------------  ---------------
     8      1.128445   1 C  py               22     -1.128444   2 C  py        
    56      1.071983   7 C  py               70     -1.071983   8 C  py        
    30      0.998034   3 H  s                35     -0.998034   4 H  s         
    40     -0.998034   5 H  s                45      0.998034   6 H  s         
     7      0.951118   1 C  px               21     -0.951118   2 C  px        
 
 Vector   48  Occ=0.000000D+00  E= 5.228985D-01
              MO Center=  5.0D-01, -4.2D-01,  4.5D+00, r^2= 2.2D+01
   Bfn.  Coefficient  Atom+Function         Bfn.  Coefficient  Atom+Function  
  ----- ------------  ---------------      ----- ------------  ---------------
    56     -1.128444   7 C  py               70      1.128444   8 C  py        
     8      1.071983   1 C  py               22     -1.071983   2 C  py        
    78     -0.998037   9 H  s                83      0.998038  10 H  s         
    88      0.998037  11 H  s                93     -0.998037  12 H  s         
    30      0.948101   3 H  s                35     -0.948101   4 H  s         
 
 Vector   49  Occ=0.000000D+00  E= 6.408393D-01
              MO Center=  5.0D-01, -4.2D-01,  4.2D+00, r^2= 2.0D+01
   Bfn.  Coefficient  Atom+Function         Bfn.  Coefficient  Atom+Function  
  ----- ------------  ---------------      ----- ------------  ---------------
     3      3.963353   1 C  s                17     -3.963353   2 C  s         
    51      3.896597   7 C  s                65     -3.896597   8 C  s         
     7      1.723566   1 C  px               21      1.723566   2 C  px        
    55      1.694535   7 C  px               69      1.694535   8 C  px        
     8     -1.452720   1 C  py               22     -1.452720   2 C  py        
 
 Vector   50  Occ=0.000000D+00  E= 6.408468D-01
              MO Center=  5.0D-01, -4.2D-01,  4.3D+00, r^2= 2.0D+01
   Bfn.  Coefficient  Atom+Function         Bfn.  Coefficient  Atom+Function  
  ----- ------------  ---------------      ----- ------------  ---------------
    51     -3.963403   7 C  s                65      3.963403   8 C  s         
     3      3.896649   1 C  s                17     -3.896649   2 C  s         
    55     -1.723594   7 C  px               69     -1.723594   8 C  px        
     7      1.694564   1 C  px               21      1.694564   2 C  px        
    56      1.452743   7 C  py               70      1.452743   8 C  py        
 
 Vector   51  Occ=0.000000D+00  E= 9.231136D-01
              MO Center=  5.0D-01, -4.2D-01,  3.0D+00, r^2= 2.0D+01
   Bfn.  Coefficient  Atom+Function         Bfn.  Coefficient  Atom+Function  
  ----- ------------  ---------------      ----- ------------  ---------------
     8      2.071600   1 C  py               22     -2.071600   2 C  py        
     7      1.746063   1 C  px               21     -1.746063   2 C  px        
    56      1.532431   7 C  py               70     -1.532431   8 C  py        
    55      1.291620   7 C  px               69     -1.291620   8 C  px        
    30      0.837992   3 H  s                35     -0.837992   4 H  s         
 
 Vector   52  Occ=0.000000D+00  E= 9.231139D-01
              MO Center=  5.0D-01, -4.2D-01,  5.5D+00, r^2= 2.0D+01
   Bfn.  Coefficient  Atom+Function         Bfn.  Coefficient  Atom+Function  
  ----- ------------  ---------------      ----- ------------  ---------------
    56      2.071603   7 C  py               70     -2.071603   8 C  py        
    55      1.746065   7 C  px               69     -1.746065   8 C  px        
     8     -1.532435   1 C  py               22      1.532435   2 C  py        
     7     -1.291623   1 C  px               21      1.291623   2 C  px        
    78      0.837995   9 H  s                83     -0.837995  10 H  s         
 
 Vector   53  Occ=0.000000D+00  E= 9.793271D-01
              MO Center=  5.0D-01, -4.2D-01, -3.4D-04, r^2= 2.0D+00
   Bfn.  Coefficient  Atom+Function         Bfn.  Coefficient  Atom+Function  
  ----- ------------  ---------------      ----- ------------  ---------------
    33      0.336343   3 H  pz               38     -0.336343   4 H  pz        
    43      0.336343   5 H  pz               48     -0.336343   6 H  pz        
    11      0.269453   1 C  d -1             25      0.269453   2 C  d -1      
    13     -0.227110   1 C  d  1             27     -0.227110   2 C  d  1      
 
 Vector   54  Occ=0.000000D+00  E= 9.793272D-01
              MO Center=  5.0D-01, -4.2D-01,  8.5D+00, r^2= 2.0D+00
   Bfn.  Coefficient  Atom+Function         Bfn.  Coefficient  Atom+Function  
  ----- ------------  ---------------      ----- ------------  ---------------
    81      0.336343   9 H  pz               86     -0.336343  10 H  pz        
    91      0.336343  11 H  pz               96     -0.336343  12 H  pz        
    59      0.269453   7 C  d -1             73      0.269453   8 C  d -1      
    61     -0.227110   7 C  d  1             75     -0.227110   8 C  d  1      
 
 Vector   55  Occ=0.000000D+00  E= 1.052944D+00
              MO Center=  5.0D-01, -4.2D-01, -1.4D-03, r^2= 2.3D+00
   Bfn.  Coefficient  Atom+Function         Bfn.  Coefficient  Atom+Function  
  ----- ------------  ---------------      ----- ------------  ---------------
    33      0.390469   3 H  pz               38     -0.390469   4 H  pz        
    43     -0.390469   5 H  pz               48      0.390469   6 H  pz        
    11     -0.213305   1 C  d -1             25      0.213305   2 C  d -1      
    13      0.179785   1 C  d  1             27     -0.179785   2 C  d  1      
 
 Vector   56  Occ=0.000000D+00  E= 1.052945D+00
              MO Center=  5.0D-01, -4.2D-01,  8.5D+00, r^2= 2.3D+00
   Bfn.  Coefficient  Atom+Function         Bfn.  Coefficient  Atom+Function  
  ----- ------------  ---------------      ----- ------------  ---------------
    81      0.390469   9 H  pz               86     -0.390469  10 H  pz        
    91     -0.390469  11 H  pz               96      0.390469  12 H  pz        
    59     -0.213305   7 C  d -1             73      0.213305   8 C  d -1      
    61      0.179785   7 C  d  1             75     -0.179785   8 C  d  1      
 
 Vector   57  Occ=0.000000D+00  E= 1.087628D+00
              MO Center=  5.0D-01, -4.2D-01,  8.2D-01, r^2= 8.0D+00
   Bfn.  Coefficient  Atom+Function         Bfn.  Coefficient  Atom+Function  
  ----- ------------  ---------------      ----- ------------  ---------------
    13      0.322584   1 C  d  1             27     -0.322584   2 C  d  1      
    11      0.271892   1 C  d -1             25     -0.271892   2 C  d -1      
    33      0.269749   3 H  pz               38      0.269749   4 H  pz        
    43      0.269749   5 H  pz               48      0.269749   6 H  pz        
     9     -0.127523   1 C  pz               23     -0.127523   2 C  pz        
 
 Vector   58  Occ=0.000000D+00  E= 1.087628D+00
              MO Center=  5.0D-01, -4.2D-01,  7.7D+00, r^2= 8.0D+00
   Bfn.  Coefficient  Atom+Function         Bfn.  Coefficient  Atom+Function  
  ----- ------------  ---------------      ----- ------------  ---------------
    61      0.322584   7 C  d  1             75     -0.322584   8 C  d  1      
    59      0.271892   7 C  d -1             73     -0.271892   8 C  d -1      
    81      0.269749   9 H  pz               86      0.269749  10 H  pz        
    91      0.269749  11 H  pz               96      0.269749  12 H  pz        
    57     -0.127523   7 C  pz               71     -0.127523   8 C  pz        
 
 Vector   59  Occ=0.000000D+00  E= 1.357237D+00
              MO Center=  5.0D-01, -4.2D-01,  2.0D+00, r^2= 1.6D+01
   Bfn.  Coefficient  Atom+Function         Bfn.  Coefficient  Atom+Function  
  ----- ------------  ---------------      ----- ------------  ---------------
     8      1.320080   1 C  py               22     -1.320080   2 C  py        
     7      1.112639   1 C  px               21     -1.112639   2 C  px        
    56      0.729106   7 C  py               70     -0.729106   8 C  py        
    55      0.614532   7 C  px               69     -0.614532   8 C  px        
    30      0.540699   3 H  s                35     -0.540699   4 H  s         
 
 Vector   60  Occ=0.000000D+00  E= 1.357237D+00
              MO Center=  5.0D-01, -4.2D-01,  6.5D+00, r^2= 1.6D+01
   Bfn.  Coefficient  Atom+Function         Bfn.  Coefficient  Atom+Function  
  ----- ------------  ---------------      ----- ------------  ---------------
    56      1.320081   7 C  py               70     -1.320081   8 C  py        
    55      1.112640   7 C  px               69     -1.112640   8 C  px        
     8     -0.729108   1 C  py               22      0.729108   2 C  py        
     7     -0.614534   1 C  px               21      0.614534   2 C  px        
    78      0.540700   9 H  s                83     -0.540700  10 H  s         
 
 Vector   61  Occ=0.000000D+00  E= 1.436012D+00
              MO Center=  5.0D-01, -4.2D-01,  9.1D-03, r^2= 2.7D+00
   Bfn.  Coefficient  Atom+Function         Bfn.  Coefficient  Atom+Function  
  ----- ------------  ---------------      ----- ------------  ---------------
     8      0.449093   1 C  py               22      0.449093   2 C  py        
    32     -0.441653   3 H  py               47     -0.441653   6 H  py        
    36     -0.425120   4 H  px               41     -0.425120   5 H  px        
     7      0.378521   1 C  px               21      0.378521   2 C  px        
    29     -0.280178   3 H  s                34      0.280178   4 H  s         
 
 Vector   62  Occ=0.000000D+00  E= 1.436012D+00
              MO Center=  5.0D-01, -4.2D-01,  8.5D+00, r^2= 2.7D+00
   Bfn.  Coefficient  Atom+Function         Bfn.  Coefficient  Atom+Function  
  ----- ------------  ---------------      ----- ------------  ---------------
    56      0.449093   7 C  py               70      0.449093   8 C  py        
    80     -0.441653   9 H  py               95     -0.441653  12 H  py        
    84     -0.425120  10 H  px               89     -0.425120  11 H  px        
    55      0.378521   7 C  px               69      0.378521   8 C  px        
    77     -0.280178   9 H  s                82      0.280178  10 H  s         
 
 Vector   63  Occ=0.000000D+00  E= 1.447640D+00
              MO Center=  5.0D-01, -4.2D-01,  1.3D-01, r^2= 3.5D+00
   Bfn.  Coefficient  Atom+Function         Bfn.  Coefficient  Atom+Function  
  ----- ------------  ---------------      ----- ------------  ---------------
     3      0.514733   1 C  s                 7     -0.512747   1 C  px        
    17      0.514733   2 C  s                21      0.512747   2 C  px        
     8      0.432173   1 C  py               22     -0.432173   2 C  py        
    10      0.282310   1 C  d -2             12     -0.281804   1 C  d  0      
    24      0.282310   2 C  d -2             26     -0.281804   2 C  d  0      
 
 Vector   64  Occ=0.000000D+00  E= 1.447640D+00
              MO Center=  5.0D-01, -4.2D-01,  8.4D+00, r^2= 3.5D+00
   Bfn.  Coefficient  Atom+Function         Bfn.  Coefficient  Atom+Function  
  ----- ------------  ---------------      ----- ------------  ---------------
    51      0.514733   7 C  s                55     -0.512747   7 C  px        
    65      0.514733   8 C  s                69      0.512747   8 C  px        
    56      0.432173   7 C  py               70     -0.432173   8 C  py        
    58      0.282310   7 C  d -2             60     -0.281803   7 C  d  0      
    72      0.282310   8 C  d -2             74     -0.281803   8 C  d  0      
 
 Vector   65  Occ=0.000000D+00  E= 1.531417D+00
              MO Center=  5.0D-01, -4.2D-01,  3.3D+00, r^2= 2.0D+01
   Bfn.  Coefficient  Atom+Function         Bfn.  Coefficient  Atom+Function  
  ----- ------------  ---------------      ----- ------------  ---------------
     9      0.452156   1 C  pz               23     -0.452156   2 C  pz        
    33      0.424765   3 H  pz               38      0.424765   4 H  pz        
    43     -0.424765   5 H  pz               48     -0.424765   6 H  pz        
    57     -0.356715   7 C  pz               71      0.356715   8 C  pz        
    81     -0.335105   9 H  pz               86     -0.335105  10 H  pz        
 
 Vector   66  Occ=0.000000D+00  E= 1.531418D+00
              MO Center=  5.0D-01, -4.2D-01,  5.2D+00, r^2= 2.0D+01
   Bfn.  Coefficient  Atom+Function         Bfn.  Coefficient  Atom+Function  
  ----- ------------  ---------------      ----- ------------  ---------------
    57      0.452157   7 C  pz               71     -0.452157   8 C  pz        
    81      0.424765   9 H  pz               86      0.424765  10 H  pz        
    91     -0.424765  11 H  pz               96     -0.424765  12 H  pz        
     9      0.356715   1 C  pz               23     -0.356715   2 C  pz        
    33      0.335105   3 H  pz               38      0.335105   4 H  pz        
 
 Vector   67  Occ=0.000000D+00  E= 1.564351D+00
              MO Center=  5.0D-01, -4.2D-01,  3.5D+00, r^2= 2.0D+01
   Bfn.  Coefficient  Atom+Function         Bfn.  Coefficient  Atom+Function  
  ----- ------------  ---------------      ----- ------------  ---------------
     3      1.361723   1 C  s                17     -1.361723   2 C  s         
    51      1.146748   7 C  s                65     -1.146748   8 C  s         
     7      0.865347   1 C  px               21      0.865347   2 C  px        
     8     -0.729364   1 C  py               22     -0.729364   2 C  py        
    55      0.728735   7 C  px               69      0.728735   8 C  px        
 
 Vector   68  Occ=0.000000D+00  E= 1.564351D+00
              MO Center=  5.0D-01, -4.2D-01,  5.0D+00, r^2= 2.0D+01
   Bfn.  Coefficient  Atom+Function         Bfn.  Coefficient  Atom+Function  
  ----- ------------  ---------------      ----- ------------  ---------------
    51      1.361729   7 C  s                65     -1.361729   8 C  s         
     3     -1.146755   1 C  s                17      1.146755   2 C  s         
    55      0.865350   7 C  px               69      0.865350   8 C  px        
     7     -0.728739   1 C  px               21     -0.728739   2 C  px        
    56     -0.729367   7 C  py               70     -0.729367   8 C  py        
 
 Vector   69  Occ=0.000000D+00  E= 1.613303D+00
              MO Center=  5.0D-01, -4.2D-01,  2.7D+00, r^2= 1.8D+01
   Bfn.  Coefficient  Atom+Function         Bfn.  Coefficient  Atom+Function  
  ----- ------------  ---------------      ----- ------------  ---------------
    14      0.320115   1 C  d  2             28     -0.320115   2 C  d  2      
    31      0.279500   3 H  px               46      0.279500   6 H  px        
    36     -0.273404   4 H  px               41     -0.273404   5 H  px        
    30     -0.235585   3 H  s                35      0.235585   4 H  s         
    37      0.236626   4 H  py               40     -0.235585   5 H  s         
 
 Vector   70  Occ=0.000000D+00  E= 1.613303D+00
              MO Center=  5.0D-01, -4.2D-01,  5.8D+00, r^2= 1.8D+01
   Bfn.  Coefficient  Atom+Function         Bfn.  Coefficient  Atom+Function  
  ----- ------------  ---------------      ----- ------------  ---------------
    62      0.320115   7 C  d  2             76     -0.320115   8 C  d  2      
    79      0.279500   9 H  px               94      0.279500  12 H  px        
    84     -0.273404  10 H  px               89     -0.273404  11 H  px        
    78     -0.235586   9 H  s                83      0.235586  10 H  s         
    85      0.236626  10 H  py               88     -0.235586  11 H  s         
 
 Vector   71  Occ=0.000000D+00  E= 1.645306D+00
              MO Center=  5.0D-01, -4.2D-01,  2.7D+00, r^2= 1.7D+01
   Bfn.  Coefficient  Atom+Function         Bfn.  Coefficient  Atom+Function  
  ----- ------------  ---------------      ----- ------------  ---------------
     2      0.506259   1 C  s                16      0.506259   2 C  s         
    12      0.432090   1 C  d  0             26      0.432090   2 C  d  0      
    50      0.346373   7 C  s                64      0.346373   8 C  s         
     7     -0.296609   1 C  px               21      0.296609   2 C  px        
    60      0.295628   7 C  d  0             74      0.295628   8 C  d  0      
 
 Vector   72  Occ=0.000000D+00  E= 1.645307D+00
              MO Center=  5.0D-01, -4.2D-01,  5.8D+00, r^2= 1.7D+01
   Bfn.  Coefficient  Atom+Function         Bfn.  Coefficient  Atom+Function  
  ----- ------------  ---------------      ----- ------------  ---------------
    50      0.506259   7 C  s                64      0.506259   8 C  s         
    60      0.432090   7 C  d  0             74      0.432090   8 C  d  0      
     2     -0.346373   1 C  s                16     -0.346373   2 C  s         
    12     -0.295628   1 C  d  0             26     -0.295628   2 C  d  0      
    55     -0.296609   7 C  px               69      0.296609   8 C  px        
 
 Vector   73  Occ=0.000000D+00  E= 1.716277D+00
              MO Center=  5.0D-01, -4.2D-01,  1.4D+00, r^2= 1.2D+01
   Bfn.  Coefficient  Atom+Function         Bfn.  Coefficient  Atom+Function  
  ----- ------------  ---------------      ----- ------------  ---------------
    33      0.439861   3 H  pz               38      0.439861   4 H  pz        
    43      0.439861   5 H  pz               48      0.439861   6 H  pz        
    13     -0.323503   1 C  d  1             27      0.323503   2 C  d  1      
    11     -0.272667   1 C  d -1             25      0.272667   2 C  d -1      
    81     -0.193253   9 H  pz               86     -0.193253  10 H  pz        
 
 Vector   74  Occ=0.000000D+00  E= 1.716277D+00
              MO Center=  5.0D-01, -4.2D-01,  7.1D+00, r^2= 1.2D+01
   Bfn.  Coefficient  Atom+Function         Bfn.  Coefficient  Atom+Function  
  ----- ------------  ---------------      ----- ------------  ---------------
    81      0.439861   9 H  pz               86      0.439861  10 H  pz        
    91      0.439861  11 H  pz               96      0.439861  12 H  pz        
    61     -0.323503   7 C  d  1             75      0.323503   8 C  d  1      
    59     -0.272667   7 C  d -1             73      0.272667   8 C  d -1      
    33      0.193253   3 H  pz               38      0.193253   4 H  pz        
 
 Vector   75  Occ=0.000000D+00  E= 1.880882D+00
              MO Center=  5.0D-01, -4.2D-01, -2.0D-04, r^2= 1.9D+00
   Bfn.  Coefficient  Atom+Function         Bfn.  Coefficient  Atom+Function  
  ----- ------------  ---------------      ----- ------------  ---------------
    11      0.498386   1 C  d -1             25      0.498386   2 C  d -1      
    33     -0.432319   3 H  pz               38      0.432319   4 H  pz        
    43     -0.432319   5 H  pz               48      0.432319   6 H  pz        
    13     -0.420068   1 C  d  1             27     -0.420068   2 C  d  1      
 
 Vector   76  Occ=0.000000D+00  E= 1.880883D+00
              MO Center=  5.0D-01, -4.2D-01,  8.5D+00, r^2= 1.9D+00
   Bfn.  Coefficient  Atom+Function         Bfn.  Coefficient  Atom+Function  
  ----- ------------  ---------------      ----- ------------  ---------------
    59      0.498386   7 C  d -1             73      0.498386   8 C  d -1      
    81     -0.432319   9 H  pz               86      0.432319  10 H  pz        
    91     -0.432319  11 H  pz               96      0.432319  12 H  pz        
    61     -0.420068   7 C  d  1             75     -0.420068   8 C  d  1      
 
 Vector   77  Occ=0.000000D+00  E= 1.972262D+00
              MO Center=  5.0D-01, -4.2D-01,  4.1D+00, r^2= 2.1D+01
   Bfn.  Coefficient  Atom+Function         Bfn.  Coefficient  Atom+Function  
  ----- ------------  ---------------      ----- ------------  ---------------
     3      2.414366   1 C  s                17     -2.414366   2 C  s         
    51      2.357435   7 C  s                65     -2.357434   8 C  s         
     7      1.094427   1 C  px               21      1.094427   2 C  px        
    55      1.068620   7 C  px               69      1.068620   8 C  px        
     8     -0.922446   1 C  py               22     -0.922446   2 C  py        
 
 Vector   78  Occ=0.000000D+00  E= 1.972266D+00
              MO Center=  5.0D-01, -4.2D-01,  4.4D+00, r^2= 2.1D+01
   Bfn.  Coefficient  Atom+Function         Bfn.  Coefficient  Atom+Function  
  ----- ------------  ---------------      ----- ------------  ---------------
    51     -2.414402   7 C  s                65      2.414402   8 C  s         
     3      2.357472   1 C  s                17     -2.357472   2 C  s         
    55     -1.094445   7 C  px               69     -1.094445   8 C  px        
     7      1.068639   1 C  px               21      1.068639   2 C  px        
    56      0.922461   7 C  py               70      0.922461   8 C  py        
 
 Vector   79  Occ=0.000000D+00  E= 2.074793D+00
              MO Center=  5.0D-01, -4.2D-01,  3.1D+00, r^2= 1.9D+01
   Bfn.  Coefficient  Atom+Function         Bfn.  Coefficient  Atom+Function  
  ----- ------------  ---------------      ----- ------------  ---------------
    31      0.508211   3 H  px               46     -0.508211   6 H  px        
    37      0.505031   4 H  py               42     -0.505031   5 H  py        
     5     -0.461152   1 C  py               19      0.461152   2 C  py        
     4     -0.388685   1 C  px               18      0.388685   2 C  px        
    79      0.382669   9 H  px               94     -0.382669  12 H  px        
 
 Vector   80  Occ=0.000000D+00  E= 2.074793D+00
              MO Center=  5.0D-01, -4.2D-01,  5.4D+00, r^2= 1.9D+01
   Bfn.  Coefficient  Atom+Function         Bfn.  Coefficient  Atom+Function  
  ----- ------------  ---------------      ----- ------------  ---------------
    79      0.508211   9 H  px               94     -0.508211  12 H  px        
    85      0.505031  10 H  py               90     -0.505031  11 H  py        
    53     -0.461152   7 C  py               67      0.461152   8 C  py        
    52     -0.388685   7 C  px               66      0.388685   8 C  px        
    31     -0.382669   3 H  px               46      0.382669   6 H  px        
 
 Vector   81  Occ=0.000000D+00  E= 2.174274D+00
              MO Center=  5.0D-01, -4.2D-01,  1.1D+00, r^2= 1.0D+01
   Bfn.  Coefficient  Atom+Function         Bfn.  Coefficient  Atom+Function  
  ----- ------------  ---------------      ----- ------------  ---------------
     3      0.509132   1 C  s                17      0.509132   2 C  s         
    10     -0.470912   1 C  d -2             24     -0.470912   2 C  d -2      
    32      0.467276   3 H  py               47     -0.467276   6 H  py        
    36     -0.446658   4 H  px               41      0.446658   5 H  px        
     4     -0.245409   1 C  px               18      0.245409   2 C  px        
 
 Vector   82  Occ=0.000000D+00  E= 2.174274D+00
              MO Center=  5.0D-01, -4.2D-01,  7.4D+00, r^2= 1.0D+01
   Bfn.  Coefficient  Atom+Function         Bfn.  Coefficient  Atom+Function  
  ----- ------------  ---------------      ----- ------------  ---------------
    51      0.509132   7 C  s                65      0.509132   8 C  s         
    58     -0.470912   7 C  d -2             72     -0.470912   8 C  d -2      
    80      0.467276   9 H  py               95     -0.467276  12 H  py        
    84     -0.446658  10 H  px               89      0.446658  11 H  px        
    52     -0.245409   7 C  px               66      0.245409   8 C  px        
 
 Vector   83  Occ=0.000000D+00  E= 2.209667D+00
              MO Center=  5.0D-01, -4.2D-01, -1.5D-04, r^2= 1.7D+00
   Bfn.  Coefficient  Atom+Function         Bfn.  Coefficient  Atom+Function  
  ----- ------------  ---------------      ----- ------------  ---------------
    11      0.588815   1 C  d -1             25     -0.588815   2 C  d -1      
    13     -0.496287   1 C  d  1             27      0.496287   2 C  d  1      
    33      0.394855   3 H  pz               38     -0.394855   4 H  pz        
    43     -0.394855   5 H  pz               48      0.394855   6 H  pz        
 
 Vector   84  Occ=0.000000D+00  E= 2.209667D+00
              MO Center=  5.0D-01, -4.2D-01,  8.5D+00, r^2= 1.7D+00
   Bfn.  Coefficient  Atom+Function         Bfn.  Coefficient  Atom+Function  
  ----- ------------  ---------------      ----- ------------  ---------------
    59      0.588815   7 C  d -1             73     -0.588815   8 C  d -1      
    61     -0.496287   7 C  d  1             75      0.496287   8 C  d  1      
    81      0.394855   9 H  pz               86     -0.394855  10 H  pz        
    91     -0.394855  11 H  pz               96      0.394855  12 H  pz        
 
 Vector   85  Occ=0.000000D+00  E= 2.273939D+00
              MO Center=  5.0D-01, -4.2D-01,  4.9D-03, r^2= 1.4D+00
   Bfn.  Coefficient  Atom+Function         Bfn.  Coefficient  Atom+Function  
  ----- ------------  ---------------      ----- ------------  ---------------
    13      0.704558   1 C  d  1             27      0.704558   2 C  d  1      
    11      0.593842   1 C  d -1             25      0.593842   2 C  d -1      
    33      0.199869   3 H  pz               38      0.199870   4 H  pz        
    43     -0.199870   5 H  pz               48     -0.199870   6 H  pz        
     6     -0.113555   1 C  pz               20      0.113555   2 C  pz        
 
 Vector   86  Occ=0.000000D+00  E= 2.273939D+00
              MO Center=  5.0D-01, -4.2D-01,  8.5D+00, r^2= 1.4D+00
   Bfn.  Coefficient  Atom+Function         Bfn.  Coefficient  Atom+Function  
  ----- ------------  ---------------      ----- ------------  ---------------
    61      0.704558   7 C  d  1             75      0.704558   8 C  d  1      
    59      0.593842   7 C  d -1             73      0.593842   8 C  d -1      
    81      0.199869   9 H  pz               86      0.199870  10 H  pz        
    91     -0.199869  11 H  pz               96     -0.199870  12 H  pz        
    54     -0.113555   7 C  pz               68      0.113555   8 C  pz        
 
 Vector   87  Occ=0.000000D+00  E= 2.533863D+00
              MO Center=  5.0D-01, -4.2D-01,  5.2D-01, r^2= 6.3D+00
   Bfn.  Coefficient  Atom+Function         Bfn.  Coefficient  Atom+Function  
  ----- ------------  ---------------      ----- ------------  ---------------
     2      0.899277   1 C  s                16      0.899277   2 C  s         
    37     -0.729400   4 H  py               42      0.729400   5 H  py        
    31      0.718861   3 H  px               46     -0.718861   6 H  px        
    29     -0.588572   3 H  s                34     -0.588572   4 H  s         
    39     -0.588572   5 H  s                44     -0.588572   6 H  s         
 
 Vector   88  Occ=0.000000D+00  E= 2.533863D+00
              MO Center=  5.0D-01, -4.2D-01,  8.0D+00, r^2= 6.3D+00
   Bfn.  Coefficient  Atom+Function         Bfn.  Coefficient  Atom+Function  
  ----- ------------  ---------------      ----- ------------  ---------------
    50      0.899277   7 C  s                64      0.899277   8 C  s         
    85     -0.729400  10 H  py               90      0.729400  11 H  py        
    79      0.718861   9 H  px               94     -0.718861  12 H  px        
    77     -0.588572   9 H  s                82     -0.588572  10 H  s         
    87     -0.588572  11 H  s                92     -0.588572  12 H  s         
 
 Vector   89  Occ=0.000000D+00  E= 2.589040D+00
              MO Center=  5.0D-01, -4.2D-01,  3.0D+00, r^2= 1.9D+01
   Bfn.  Coefficient  Atom+Function         Bfn.  Coefficient  Atom+Function  
  ----- ------------  ---------------      ----- ------------  ---------------
    37      0.605896   4 H  py               42      0.605896   5 H  py        
    14     -0.599588   1 C  d  2             28      0.599588   2 C  d  2      
    31      0.581510   3 H  px               46      0.581511   6 H  px        
     5      0.554588   1 C  py               19      0.554588   2 C  py        
    29     -0.542193   3 H  s                34      0.542193   4 H  s         
 
 Vector   90  Occ=0.000000D+00  E= 2.589040D+00
              MO Center=  5.0D-01, -4.2D-01,  5.5D+00, r^2= 1.9D+01
   Bfn.  Coefficient  Atom+Function         Bfn.  Coefficient  Atom+Function  
  ----- ------------  ---------------      ----- ------------  ---------------
    85      0.605896  10 H  py               90      0.605896  11 H  py        
    62     -0.599588   7 C  d  2             76      0.599588   8 C  d  2      
    79      0.581511   9 H  px               94      0.581511  12 H  px        
    53      0.554588   7 C  py               67      0.554588   8 C  py        
    77     -0.542193   9 H  s                82      0.542193  10 H  s         
 
 Vector   91  Occ=0.000000D+00  E= 2.606480D+00
              MO Center=  5.0D-01, -4.2D-01,  3.8D-01, r^2= 4.7D+00
   Bfn.  Coefficient  Atom+Function         Bfn.  Coefficient  Atom+Function  
  ----- ------------  ---------------      ----- ------------  ---------------
     3      1.306853   1 C  s                17     -1.306853   2 C  s         
     2      1.074005   1 C  s                16     -1.074005   2 C  s         
    12     -0.748155   1 C  d  0             26      0.748155   2 C  d  0      
    10     -0.656725   1 C  d -2             24      0.656725   2 C  d -2      
     4      0.356512   1 C  px               18      0.356512   2 C  px        
 
 Vector   92  Occ=0.000000D+00  E= 2.606480D+00
              MO Center=  5.0D-01, -4.2D-01,  8.1D+00, r^2= 4.7D+00
   Bfn.  Coefficient  Atom+Function         Bfn.  Coefficient  Atom+Function  
  ----- ------------  ---------------      ----- ------------  ---------------
    51      1.306854   7 C  s                65     -1.306854   8 C  s         
    50      1.074005   7 C  s                64     -1.074005   8 C  s         
    60     -0.748155   7 C  d  0             74      0.748155   8 C  d  0      
    58     -0.656725   7 C  d -2             72      0.656725   8 C  d -2      
    52      0.356512   7 C  px               66      0.356512   8 C  px        
 
 Vector   93  Occ=0.000000D+00  E= 2.915999D+00
              MO Center=  5.0D-01, -4.2D-01,  2.8D-01, r^2= 4.2D+00
   Bfn.  Coefficient  Atom+Function         Bfn.  Coefficient  Atom+Function  
  ----- ------------  ---------------      ----- ------------  ---------------
     3      1.501812   1 C  s                17     -1.501812   2 C  s         
    10      0.913310   1 C  d -2             24     -0.913310   2 C  d -2      
    31     -0.662215   3 H  px               46     -0.662215   6 H  px        
    37      0.654746   4 H  py               42      0.654746   5 H  py        
    29      0.618033   3 H  s                34      0.618033   4 H  s         
 
 Vector   94  Occ=0.000000D+00  E= 2.915999D+00
              MO Center=  5.0D-01, -4.2D-01,  8.2D+00, r^2= 4.2D+00
   Bfn.  Coefficient  Atom+Function         Bfn.  Coefficient  Atom+Function  
  ----- ------------  ---------------      ----- ------------  ---------------
    51      1.501813   7 C  s                65     -1.501813   8 C  s         
    58      0.913310   7 C  d -2             72     -0.913310   8 C  d -2      
    79     -0.662215   9 H  px               94     -0.662215  12 H  px        
    85      0.654746  10 H  py               90      0.654746  11 H  py        
[...]
    29     -0.472330   3 H  s                34     -0.472330   4 H  s         
 
 Vector   88  Occ=0.000000D+00  E= 2.536592D+00
              MO Center=  5.0D-01, -4.2D-01,  5.1D+00, r^2= 1.9D+01
   Bfn.  Coefficient  Atom+Function         Bfn.  Coefficient  Atom+Function  
  ----- ------------  ---------------      ----- ------------  ---------------
    50      0.718082   7 C  s                64      0.718082   8 C  s         
     2     -0.581544   1 C  s                16     -0.581544   2 C  s         
    85     -0.583884  10 H  py               90      0.583884  11 H  py        
    79      0.575451   9 H  px               94     -0.575451  12 H  px        
    37      0.472863   4 H  py               42     -0.472863   5 H  py        
 
 Vector   89  Occ=0.000000D+00  E= 2.591164D+00
              MO Center=  5.0D-01, -4.2D-01,  3.1D+00, r^2= 1.9D+01
   Bfn.  Coefficient  Atom+Function         Bfn.  Coefficient  Atom+Function  
  ----- ------------  ---------------      ----- ------------  ---------------
    37      0.596557   4 H  py               42      0.596557   5 H  py        
    14     -0.591281   1 C  d  2             28      0.591281   2 C  d  2      
    31      0.572539   3 H  px               46      0.572539   6 H  px        
     5      0.546839   1 C  py               19      0.546839   2 C  py        
    29     -0.534501   3 H  s                34      0.534501   4 H  s         
 
 Vector   90  Occ=0.000000D+00  E= 2.591165D+00
              MO Center=  5.0D-01, -4.2D-01,  5.4D+00, r^2= 1.9D+01
   Bfn.  Coefficient  Atom+Function         Bfn.  Coefficient  Atom+Function  
  ----- ------------  ---------------      ----- ------------  ---------------
    85      0.596557  10 H  py               90      0.596557  11 H  py        
    62     -0.591281   7 C  d  2             76      0.591282   8 C  d  2      
    79      0.572539   9 H  px               94      0.572539  12 H  px        
    53      0.546839   7 C  py               67      0.546839   8 C  py        
    77     -0.534501   9 H  s                82      0.534501  10 H  s         
 
 Vector   91  Occ=0.000000D+00  E= 2.613414D+00
              MO Center=  5.0D-01, -4.2D-01,  1.6D+00, r^2= 1.3D+01
   Bfn.  Coefficient  Atom+Function         Bfn.  Coefficient  Atom+Function  
  ----- ------------  ---------------      ----- ------------  ---------------
     3      1.221318   1 C  s                17     -1.221318   2 C  s         
     2      0.981261   1 C  s                16     -0.981261   2 C  s         
    12     -0.693221   1 C  d  0             26      0.693220   2 C  d  0      
    10     -0.611091   1 C  d -2             24      0.611091   2 C  d -2      
    51      0.584575   7 C  s                65     -0.584575   8 C  s         
 
 Vector   92  Occ=0.000000D+00  E= 2.613414D+00
              MO Center=  5.0D-01, -4.2D-01,  6.9D+00, r^2= 1.3D+01
   Bfn.  Coefficient  Atom+Function         Bfn.  Coefficient  Atom+Function  
  ----- ------------  ---------------      ----- ------------  ---------------
    51      1.221320   7 C  s                65     -1.221320   8 C  s         
    50      0.981261   7 C  s                64     -0.981261   8 C  s         
    60     -0.693221   7 C  d  0             74      0.693221   8 C  d  0      
    58     -0.611091   7 C  d -2             72      0.611091   8 C  d -2      
     3     -0.584579   1 C  s                17      0.584579   2 C  s         
 
 Vector   93  Occ=0.000000D+00  E= 2.920691D+00
              MO Center=  5.0D-01, -4.2D-01,  4.1D-01, r^2= 5.2D+00
   Bfn.  Coefficient  Atom+Function         Bfn.  Coefficient  Atom+Function  
  ----- ------------  ---------------      ----- ------------  ---------------
     3      1.509886   1 C  s                17     -1.509886   2 C  s         
    10      0.902489   1 C  d -2             24     -0.902489   2 C  d -2      
    31     -0.656591   3 H  px               46     -0.656591   6 H  px        
    37      0.649325   4 H  py               42      0.649325   5 H  py        
    29      0.614671   3 H  s                34      0.614671   4 H  s         
 
 Vector   94  Occ=0.000000D+00  E= 2.920691D+00
              MO Center=  5.0D-01, -4.2D-01,  8.1D+00, r^2= 5.2D+00
   Bfn.  Coefficient  Atom+Function         Bfn.  Coefficient  Atom+Function  
  ----- ------------  ---------------      ----- ------------  ---------------
    51      1.509887   7 C  s                65     -1.509887   8 C  s         
    58      0.902489   7 C  d -2             72     -0.902489   8 C  d -2      
    79     -0.656591   9 H  px               94     -0.656591  12 H  px        
    85      0.649325  10 H  py               90      0.649325  11 H  py        
    77      0.614671   9 H  s                82      0.614671  10 H  s         
 
 Vector   95  Occ=0.000000D+00  E= 3.130978D+00
              MO Center=  5.0D-01, -4.2D-01,  4.9D-01, r^2= 5.5D+00
   Bfn.  Coefficient  Atom+Function         Bfn.  Coefficient  Atom+Function  
  ----- ------------  ---------------      ----- ------------  ---------------
    14      1.182119   1 C  d  2             28      1.182119   2 C  d  2      
    29     -0.675831   3 H  s                34      0.675831   4 H  s         
    39      0.675831   5 H  s                44     -0.675831   6 H  s         
     8     -0.536899   1 C  py               22      0.536899   2 C  py        
    37      0.497881   4 H  py               42     -0.497881   5 H  py        
 
 Vector   96  Occ=0.000000D+00  E= 3.130979D+00
              MO Center=  5.0D-01, -4.2D-01,  8.0D+00, r^2= 5.5D+00
   Bfn.  Coefficient  Atom+Function         Bfn.  Coefficient  Atom+Function  
  ----- ------------  ---------------      ----- ------------  ---------------
    62      1.182119   7 C  d  2             76      1.182119   8 C  d  2      
    77     -0.675831   9 H  s                82      0.675831  10 H  s         
    87      0.675831  11 H  s                92     -0.675831  12 H  s         
    56     -0.536899   7 C  py               70      0.536899   8 C  py        
    85      0.497881  10 H  py               90     -0.497881  11 H  py        
 

   alpha - beta orbital overlaps 
   ----------------------------- 


   alpha      1      2      3      4      5      6      7      8      9     10
    beta      1      2      3      4      5      6      7      8      9     10
 overlap   0.812  0.812  0.999  0.999  0.761  0.761  0.792  0.792  0.781  0.781


   alpha     11     12     13     14     15     16     17     18     19     20
    beta     11     12     13     14     15     16     17     18     19     20
 overlap   0.842  0.842  0.978  0.978  0.969  0.969  0.984  0.984  1.000  1.000


   alpha     21     22     23     24     25     26     27     28     29     30
    beta     21     22     23     24     25     26     27     28     29     30
 overlap   1.000  1.000  1.000  1.000  1.000  1.000  1.000  1.000  0.982  0.982


   alpha     31     32     33     34     35     36     37     38     39     40
    beta     31     32     33     34     35     36     37     38     39     40
 overlap   0.995  0.995  0.997  0.997  0.999  0.999  0.999  0.999  0.998  0.998


   alpha     41     42     43     44     45     46     47     48     49     50
    beta     41     42     43     44     45     46     47     48     49     50
 overlap   1.000  1.000  1.000  1.000  0.957  0.957  1.000  1.000  0.999  0.999


   alpha     51     52     53     54     55     56     57     58     59     60
    beta     51     52     53     54     55     56     57     58     59     60
 overlap   0.999  0.999  0.709  0.709  0.765  0.765  0.904  0.904  0.998  0.998


   alpha     61     62     63     64     65     66     67     68     69     70
    beta     61     62     63     64     65     66     67     68     69     70
 overlap   0.752  0.752  0.793  0.793  0.999  0.999  1.000  1.000  1.000  1.000


   alpha     71     72     73     74     75     76     77     78     79     80
    beta     71     72     73     74     75     76     77     78     79     80
 overlap   0.983  0.983  0.959  0.959  0.731  0.731  1.000  1.000  1.000  1.000


   alpha     81     82     83     84     85     86     87     88     89     90
    beta     81     82     83     84     85     86     87     88     89     90
 overlap   0.941  0.941  1.000  1.000  0.767  0.767  0.908  0.908  1.000  1.000


   alpha     91     92     93     94     95     96
    beta     91     92     93     94     95     96
 overlap   0.973  0.973  0.999  0.999  1.000  1.000

     --------------------------
     Expectation value of S2:  
     --------------------------
      <S2> =      0.7514 (Exact =     0.7500)
 

 center of mass
 --------------
 x =   0.94571143 y =  -0.79709963 z =   8.03133603

 moments of inertia (a.u.)
 ------------------
        3678.873502187993          43.954890022004          -0.000000000000
          43.954890022004        3693.975678623439          -0.000000000000
          -0.000000000000          -0.000000000000         140.509345339532
 
     Multipole analysis of the density
     ---------------------------------
 
     L   x y z        total         alpha         beta         nuclear
     -   - - -        -----         -----         ----         -------
     0   0 0 0      1.000000    -16.000000    -15.000000     32.000000
 
     1   1 0 0      0.945711    -15.131383    -14.185671     30.262766
     1   0 1 0     -0.797100     12.753594     11.956494    -25.507188
     1   0 0 1      8.031394   -128.501376   -120.469982    257.002753
 
     2   2 0 0    -13.619620    -50.165029    -48.144527     84.689936
     2   1 1 0     -1.265783     24.974100     23.685280    -49.925162
     2   1 0 1      7.595382   -121.525220   -113.929839    243.050440
     2   0 2 0    -14.054522    -41.584339    -40.006655     67.536472
     2   0 1 1     -6.401822    102.428400     96.026578   -204.856800
     2   0 0 2    110.252412  -2074.495750  -1943.402775   4128.150937
 

 Parallel integral file used      53 records with       0 large values

                                NWChem TDDFT Module
                                -------------------
 
 
            General Information
            -------------------
           No. of orbitals :     192
            Alpha orbitals :      96
             Beta orbitals :      96
        Alpha frozen cores :       0
         Beta frozen cores :       0
     Alpha frozen virtuals :       0
      Beta frozen virtuals :       0
         Spin multiplicity :       2
    Number of AO functions :      96
        Use of symmetry is : off
      Symmetry adaption is : off
         Schwarz screening :  0.10D-07
 
              XC Information
              --------------
                  B3LYP Method XC Potential
              Hartree-Fock (Exact) Exchange   0.20          
                 Slater Exchange Functional   0.80 local    
             Becke 1988 Exchange Functional   0.72 non-local
       Lee-Yang-Parr Correlation Functional   0.81          
           VWN I RPA Correlation Functional   0.19 local    
 
             TDDFT Information
             -----------------
          Calculation type : Tamm-Dancoff TDDFT
         Wavefunction type : Unrestricted
          No. of electrons :      31
           Alpha electrons :      16
            Beta electrons :      15
              No. of roots :       1
          Max subspacesize :    4200
            Max iterations :     100
               Target root :       1
           Target symmetry : none
      Symmetry restriction : off
                 Algorithm : Optimal
        Davidson threshold :  0.10D-03
 
            Memory Information
            ------------------
          Available GA space size is        4587501568 doubles
          Available MA space size is         655354452 doubles
          Length of a trial vector is         1280    1215
          Algorithm : Incore multiple tensor contraction
          Estimated peak GA usage is          31789703 doubles
          Estimated peak MA usage is               600 doubles
 
    1 smallest eigenvalue differences (eV) 
--------------------------------------------------------
  No. Spin  Occ  Vir  Irrep   E(Occ)    E(Vir)   E(Diff)
--------------------------------------------------------
    1    2   15   16 a        -0.429    -0.416     0.341
--------------------------------------------------------

  Entering Davidson iterations
  Unrestricted

  Iter   NTrls   NConv    DeltaV     DeltaE      Time   
  ----  ------  ------  ---------  ---------  --------- 
    1      1       0     0.19E+00   0.10+100        0.8
    2      2       0     0.19E-01   0.36E-01        0.9
    3      3       0     0.16E-02   0.33E-03        0.9
    4      4       0     0.29E-03   0.24E-05        0.8
    5      5       1     0.62E-04   0.82E-07        0.8
  ----  ------  ------  ---------  ---------  --------- 
  Convergence criterion met
 
  Ground state a        -156.712310502857 a.u.
  <S2> =   0.7514
 
  ----------------------------------------------------------------------------
  Root   1         a              0.099673201 a.u.                2.7122 eV 
  <S2> =   0.7516
  ----------------------------------------------------------------------------
     Transition Moments    X  0.00000   Y -0.00000   Z -7.83850
     Transition Moments   XX -0.00000  XY  0.00000  XZ -7.41296
     Transition Moments   YY -0.00000  YZ  6.24806  ZZ*********
     Dipole Oscillator Strength                    4.0827487093
     Electric Quadrupole                           0.0000283598
     Magnetic Dipole                               0.0000000004
     Total Oscillator Strength                     4.0827770694
 
     Occ.   15 beta  a   ---  Virt.   16 beta  a       -0.97971
 
              Target root =      1
          Target symmetry = none
      Ground state energy =   -156.712310502857
        Excitation energy =      0.099673201365
     Excited state energy =   -156.612637301492
 
  stored tddft:energy   -156.612637301492     
 fn_civecs: 
 ./nwchem.civecs                                                                
                                                                                
                                                                                
                    

  CI vectors are stored in ./nwchem.civecs                 

 Task  times  cpu:        5.4s     wall:        6.5s
 
 
                                NWChem Input Module
                                -------------------
 
 
                              NWChem Property Module
                              ----------------------
 
 

          -------------
          Dipole Moment
          -------------

 Center of charge (in au) is the expansion point
         X =       0.9457114 Y =      -0.7970996 Z =       8.0313360

   Dipole moment        0.0000584712 A.U.
             DMX        0.0000000031 DMXEFC        0.0000000000
             DMY       -0.0000000022 DMYEFC        0.0000000000
             DMZ        0.0000584712 DMZEFC        0.0000000000
   -EFC- dipole         0.0000000000 A.U.
   Total dipole         0.0000584712 A.U.

   Dipole moment        0.0001486201 Debye(s)
             DMX        0.0000000079 DMXEFC        0.0000000000
             DMY       -0.0000000057 DMYEFC        0.0000000000
             DMZ        0.0001486201 DMZEFC        0.0000000000
   -EFC- dipole         0.0000000000 DEBYE(S)
   Total dipole         0.0001486201 DEBYE(S)

 1 a.u. = 2.541766 Debyes 

 Task  times  cpu:        0.0s     wall:        0.0s
 
 
                                NWChem Input Module
                                -------------------
 
 
 Summary of allocated global arrays
-----------------------------------
  No active global arrays


MA_summarize_allocated_blocks: starting scan ...
MA_summarize_allocated_blocks: scan completed: 0 heap blocks, 0 stack blocks
MA usage statistics:

	allocation statistics:
					      heap	     stack
					      ----	     -----
	current number of blocks	         0	         0
	maximum number of blocks	        21	        53
	current total bytes		         0	         0
	maximum total bytes		  28155496	  22518888
	maximum total K-bytes		     28156	     22519
	maximum total M-bytes		        29	        23
 
 
                                     CITATION
                                     --------
                Please cite the following reference when publishing
                           results obtained with NWChem:
 
          E. Apra, E. J. Bylaska, W. A. de Jong, N. Govind, K. Kowalski,
       T. P. Straatsma, M. Valiev, H. J. J. van Dam, Y. Alexeev, J. Anchell,
       V. Anisimov, F. W. Aquino, R. Atta-Fynn, J. Autschbach, N. P. Bauman,
     J. C. Becca, D. E. Bernholdt, K. Bhaskaran-Nair, S. Bogatko, P. Borowski,
         J. Boschen, J. Brabec, A. Bruner, E. Cauet, Y. Chen, G. N. Chuev,
      C. J. Cramer, J. Daily, M. J. O. Deegan, T. H. Dunning Jr., M. Dupuis,
   K. G. Dyall, G. I. Fann, S. A. Fischer, A. Fonari, H. Fruchtl, L. Gagliardi,
      J. Garza, N. Gawande, S. Ghosh, K. Glaesemann, A. W. Gotz, J. Hammond,
       V. Helms, E. D. Hermes, K. Hirao, S. Hirata, M. Jacquelin, L. Jensen,
   B. G. Johnson, H. Jonsson, R. A. Kendall, M. Klemm, R. Kobayashi, V. Konkov,
      S. Krishnamoorthy, M. Krishnan, Z. Lin, R. D. Lins, R. J. Littlefield,
      A. J. Logsdail, K. Lopata, W. Ma, A. V. Marenich, J. Martin del Campo,
   D. Mejia-Rodriguez, J. E. Moore, J. M. Mullin, T. Nakajima, D. R. Nascimento,
    J. A. Nichols, P. J. Nichols, J. Nieplocha, A. Otero-de-la-Roza, B. Palmer,
    A. Panyala, T. Pirojsirikul, B. Peng, R. Peverati, J. Pittner, L. Pollack,
   R. M. Richard, P. Sadayappan, G. C. Schatz, W. A. Shelton, D. W. Silverstein,
   D. M. A. Smith, T. A. Soares, D. Song, M. Swart, H. L. Taylor, G. S. Thomas,
            V. Tipparaju, D. G. Truhlar, K. Tsemekhman, T. Van Voorhis,
      A. Vazquez-Mayagoitia, P. Verma, O. Villa, A. Vishnu, K. D. Vogiatzis,
        D. Wang, J. H. Weare, M. J. Williamson, T. L. Windus, K. Wolinski,
        A. T. Wong, Q. Wu, C. Yang, Q. Yu, M. Zacharias, Z. Zhang, Y. Zhao,
                                and R. J. Harrison
                        "NWChem: Past, present, and future
                         J. Chem. Phys. 152, 184102 (2020)
                               doi:10.1063/5.0004997
 
                                      AUTHORS
                                      -------
  E. Apra, E. J. Bylaska, N. Govind, K. Kowalski, M. Valiev, D. Mejia-Rodriguez,
       A. Kunitsa, N. P. Bauman, A. Panyala, W. A. de Jong, T. P. Straatsma,
   H. J. J. van Dam, D. Wang, T. L. Windus, J. Hammond, J. Autschbach, A. Woods,
    K. Bhaskaran-Nair, J. Brabec, K. Lopata, S. A. Fischer, S. Krishnamoorthy,
     M. Jacquelin, W. Ma, M. Klemm, O. Villa, Y. Chen, V. Anisimov, F. Aquino,
     S. Hirata, M. T. Hackler, E. Hermes, L. Jensen, J. E. Moore, J. C. Becca,
      V. Konjkov, T. Risthaus, M. Malagoli, A. Marenich, A. Otero-de-la-Roza,
        J. Mullin, P. Nichols, R. Peverati, J. Pittner, Y. Zhao, P.-D. Fan,
        A. Fonari, M. J. Williamson, R. J. Harrison, J. R. Rehr, M. Dupuis,
     D. Silverstein, D. M. A. Smith, J. Nieplocha, V. Tipparaju, M. Krishnan,
     B. E. Van Kuiken, A. Vazquez-Mayagoitia, M. Swart, Q. Wu, T. Van Voorhis,
     A. A. Auer, M. Nooijen, L. D. Crosby, E. Brown, G. Cisneros, G. I. Fann,
   H. Fruchtl, J. Garza, K. Hirao, R. A. Kendall, J. A. Nichols, K. Tsemekhman,
    K. Wolinski, J. Anchell, D. E. Bernholdt, P. Borowski, T. Clark, D. Clerc,
   H. Dachsel, M. J. O. Deegan, K. Dyall, D. Elwood, E. Glendening, M. Gutowski,
   A. C. Hess, J. Jaffe, B. G. Johnson, J. Ju, R. Kobayashi, R. Kutteh, Z. Lin,
   R. Littlefield, X. Long, B. Meng, T. Nakajima, S. Niu, L. Pollack, M. Rosing,
   K. Glaesemann, G. Sandrone, M. Stave, H. Taylor, G. Thomas, J. H. van Lenthe,
                               A. T. Wong, Z. Zhang.

 Total times  cpu:        5.5s     wall:        6.6s
