
                                 *****************
                                 * O   R   C   A *
                                 *****************

                                            #,                                       
                                            ###                                      
                                            ####                                     
                                            #####                                    
                                            ######                                   
                                           ########,                                 
                                     ,,################,,,,,                         
                               ,,#################################,,                 
                          ,,##########################################,,             
                       ,#########################################, ''#####,          
                    ,#############################################,,   '####,        
                  ,##################################################,,,,####,       
                ,###########''''           ''''###############################       
              ,#####''   ,,,,##########,,,,          '''####'''          '####       
            ,##' ,,,,###########################,,,                        '##       
           ' ,,###''''                  '''############,,,                           
         ,,##''                                '''############,,,,        ,,,,,,###''
      ,#''                                            '''#######################'''  
     '                                                          ''''####''''         
             ,#######,   #######,   ,#######,      ##                                
            ,#'     '#,  ##    ##  ,#'     '#,    #''#        ,####,   ,####,        
            ##       ##  ##   ,#'  ##            #'  '#       #'       #'  '#        
            ##       ##  #######   ##           ,######,      #####,   #    #        
            '#,     ,#'  ##    ##  '#,     ,#' ,#      #,     #,   #   #,  ,#        
             '#######'   ##     ##  '#######'  #'      '#     '####' # '####'        



                #########################################################
                #                        -***-                          #
                #          Department of theory and spectroscopy        #
                #                                                       #
                #                      Frank Neese                      #
                #                                                       #
                #     Directorship, Architecture, Infrastructure        #
                #                    SHARK, DRIVERS                     #
                #        Core code/Algorithms in most modules           #
                #                                                       #
                #        Max Planck Institute fuer Kohlenforschung      #
                #                Kaiser Wilhelm Platz 1                 #
                #                 D-45470 Muelheim/Ruhr                 #
                #                      Germany                          #
                #                                                       #
                #                  All rights reserved                  #
                #                        -***-                          #
                #########################################################


                         Program Version 6.0.1  -  RELEASE   -


 With contributions from (in alphabetic order):
[Max-Planck-Institut fuer Kohlenforschung]                               
  Daniel Aravena         : Magnetic Suceptibility                        
  Michael Atanasov       : Ab Initio Ligand Field Theory (pilot matlab implementation)
  Alexander A. Auer      : GIAO ZORA, VPT2 properties, NMR spectrum      
  Ute Becker             : All parallelization in ORCA, NUMFREQ, NUMCALC 
  Giovanni Bistoni       : ED, misc. LED, open-shell LED, HFLD           
  Martin Brehm           : Molecular dynamics                            
  Dmytro Bykov           : pre 5.0 version of the SCF Hessian            
  Marcos Casanova-Páez   : Triplet and SCS-CIS(D). UHF-(DLPNO)-IP/EA/STEOM-CCSD. UHF-CVS-IP/STEOM-CCSD   
  Vijay G. Chilkuri      : MRCI spin determinant printing, contributions to CSF-ICE 
  Pauline Colinet        : FMM embedding                                 
  Dipayan Datta          : RHF DLPNO-CCSD density                        
  Achintya Kumar Dutta   : EOM-CC, STEOM-CC                              
  Nicolas Foglia         : Exact transition moments, OPA infrastructure, MCD improvements    
  Dmitry Ganyushin       : Spin-Orbit,Spin-Spin,Magnetic field MRCI      
  Miquel Garcia-Rates    : C-PCM and meta-GGA Hessian, CCSD/C-PCM, Gaussian charge scheme 
  Tiago L. C. Gouveia    : GS-ROHF, GS-ROCIS                             
  Yang Guo               : DLPNO-NEVPT2, F12-NEVPT2, CIM, IAO-localization        
  Andreas Hansen         : Spin unrestricted coupled pair/coupled cluster methods 
  Ingolf Harden          : AUTO-CI MPn and infrastructure                
  Benjamin Helmich-Paris : MC-RPA, TRAH-(SCF,CASSCF), AVAS, COSX integrals, SCF dyn. polar. 
  Lee Huntington         : MR-EOM, pCC                                   
  Robert Izsak           : Overlap fitted RIJCOSX, COSX-SCS-MP3, EOM     
  Riya Kayal             : Wick's Theorem for AUTO-CI, AUTO-CI UHF-CCSDT 
  Emily Kempfer          : AUTO-CI, RHF CISDT and CCSDT                  
  Christian Kollmar      : KDIIS, OOCD, Brueckner-CCSD(T), CCSD density, CASPT2, CASPT2-K, improved NEVPT2 
  Axel Koslowski         : Symmetry handling                             
  Simone Kossmann        : meta-GGA functionals, TD-DFT gradient, OOMP2, (MP2 Hessian; deprecated post 5.0) 
  Lucas Lang             : DCDCAS                                        
  Marvin Lechner         : AUTO-CI (C++ implementation), FIC-MRCC        
  Spencer Leger          : CASSCF response                               
  Dagmar Lenk            : GEPOL surface, SMD, ORCA-2-JSON               
  Dimitrios Liakos       : Extrapolation schemes; Compound Job, initial MDCI parallelization 
  Dimitrios Manganas     : Further ROCIS development; embedding schemes. LFT, Crystal Embedding 
  Dimitrios Pantazis     : SARC Basis sets                               
  Anastasios Papadopoulos: AUTO-CI, single reference methods and gradients 
  Taras Petrenko         : pre 6.0 DFT Hessian and TD-DFT gradient, (ASA, deprecated), ECA, 1-Electron XAS/XES, NRVS 
  Peter Pinski           : DLPNO-MP2, DLPNO-MP2 Gradient                 
  Christoph Reimann      : Effective Core Potentials                     
  Marius Retegan         : Local ZFS, SOC                                
  Christoph Riplinger    : Optimizer, TS searches, QM/MM, DLPNO-CCSD(T), (RO)-DLPNO pert. Triples 
  Michael Roemelt        : Original ROCIS implementation                 
  Masaaki Saitow         : Open-shell DLPNO-CCSD energy and density      
  Barbara Sandhoefer     : DKH picture change effects                    
  Kantharuban Sivalingam : CASSCF convergence/infrastructure, NEVPT2 and variants, FIC-MRCI 
  Bernardo de Souza      : ESD, SOC TD-DFT                               
  Georgi L. Stoychev     : AutoAux, RI-MP2 NMR, DLPNO-MP2 response, X2C  
  Van Anh Tran           : RI-MP2 g-tensors                              
  Willem Van den Heuvel  : Paramagnetic NMR                              
  Zikuan Wang            : NOTCH, Electric field optimization            
  Frank Wennmohs         : Technical directorship and infrastructure     
  Hang Xu                : AUTO-CI-Response properties                   
                                                                         
[FACCTs GmbH]                                                            
  Markus Bursch, Miquel Garcia-Rates, Christoph Riplinger, Bernardo de Souza, Georgi L. Stoychev 
                                                                 
  APM, Basis sets (HGBS, AHGBS, def-TZVP (Ac-Lr), def2-XVPD (La-Lu)), CI-OPT, improved COSX, DLPNO-Multilevel,           
  DOCKER, DRACO, updates on ESD, GOAT, IRC, LR-CPCM, MBIS, meta-GGA TD-DFT gradient, ML-optimized integration grids, 
  MM, NACMEs, nearIR, NEB, NEB-TS, NL-DFT gradient (VV10), 2- and 3-layer-ONIOM, interface openCOSMO-RS, QMMM,   
  Crystal-QMMM, SF, symmetry and pop. for TD-DFT, r2SCAN hybrids, SOLVATOR                                   
                                                                         
[Other institutions]                                                     
  V. Asgeirsson          : NEB                                           
  Christoph Bannwarth    : sTDA-DFT, sTD-DFT, PBEh-3c, B97-3c, D3        
  Sebastian Ehlert       : rSCAN, r2SCAN, r2SCAN-3c, D4, dhf basis sets  
  Marvin Friede          : D4 for Fr, Ra, Ac-Lr                          
  Lars Goerigk           : TD-DFT with DH, B97 family of functionals     
  Stefan Grimme          : VdW corrections, initial TS optimization, DFT functionals, gCP, sTDA/sTD-DF 
  Waldemar Hujo          : DFT-NL                                        
  H. Jonsson             : NEB                                           
  Holger Kruse           : gCP                                           
  Marcel Mueller         : wB97X-3c, vDZP basis set                      
  Hagen Neugebauer       : wr2SCAN                                       
  Tobias Risthaus        : range-separated hybrid DFT                    
  Lukas Wittmann         : regularized MP2, r2SCAN double-hybrids, wr2SCAN        
                                                                         
We gratefully acknowledge several colleagues who have allowed us to      
interface, adapt or use parts of their codes:                            
  Ed Valeev, F. Pavosevic, A. Kumar             : LibInt (2-el integral package), F12 methods 
  Garnet Chan, S. Sharma, J. Yang, R. Olivares  : DMRG                   
  Ulf Ekstrom                                   : XCFun DFT Library      
  Mihaly Kallay                                 : mrcc  (arbitrary order and MRCC methods)
  Frank Weinhold                                : gennbo (NPA and NBO analysis)           
  Simon Mueller                                 : openCOSMO-RS                            
  Christopher J. Cramer and Donald G. Truhlar   : smd solvation model                     
  S Lehtola, MJT Oliveira, MAL Marques          : LibXC Library                           
  Liviu Ungur et al                             : ANISO software                          


 Your calculation uses the libint2 library for the computation of 2-el integrals
 For citations please refer to: http://libint.valeyev.net

 Your ORCA version has been built with support for libXC version: 6.2.2
 For citations please refer to: https://libxc.gitlab.io

 This ORCA versions uses:
   CBLAS   interface :  Fast vector & matrix operations
   LAPACKE interface :  Fast linear algebra routines
   SCALAPACK package :  Parallel linear algebra routines
   Shared memory     :  Shared parallel matrices
   BLAS/LAPACK       :  OpenBLAS 0.3.27  USE64BITINT DYNAMIC_ARCH NO_AFFINITY Zen SINGLE_THREADED
        Core in use  :  Zen
   Copyright (c) 2011-2014, The OpenBLAS Project




***************************************
The coordinates will be read from file: geom.xyz
***************************************


================================================================================

================================================================================
                                        WARNINGS
                       Please study these warnings very carefully!
================================================================================


WARNING: Geometry Optimization
  ===> : Switching off AutoStart
         For restart on a previous wavefunction, please use MOREAD

Using external energy/gradient program from environment variable EXTOPTEXE:
  "/user/mai/SHARC/REPOSITORY_switchable/sharc_main/bin/otool_external"


WARNING: four-center integrals in TRAH must be done with SHARK!
  ===> : Turning Shark on


================================================================================
                                       INPUT FILE
================================================================================
NAME = orca.inp
|  1> #
|  2> #SHARC: states 4 0 3
|  3> #SHARC: interface LVC
|  4> #SHARC: opt min 2
|  5> 
|  6> ! ExtOpt Opt
|  7> 
|  8> %geom
|  9>   maxstep 0.300000
| 10>   Trust -0.300000
| 11> end
| 12> 
| 13> * xyzfile 0 1 geom.xyz
| 14> 
| 15> 
| 16>                          ****END OF INPUT****
================================================================================

                       *****************************
                       * Geometry Optimization Run *
                       *****************************

Geometry optimization settings:
Update method            Update   .... BFGS
Choice of coordinates    CoordSys .... (2022) Redundant Internals
Initial Hessian          InHess   .... Almloef's Model
Max. no of cycles        MaxIter  .... 50

Convergence Tolerances:
Energy Change            TolE     ....  5.0000e-06 Eh
Max. Gradient            TolMAXG  ....  3.0000e-04 Eh/bohr
RMS Gradient             TolRMSG  ....  1.0000e-04 Eh/bohr
Max. Displacement        TolMAXD  ....  4.0000e-03 bohr
RMS Displacement         TolRMSD  ....  2.0000e-03 bohr
Strict Convergence                .... False

------------------------------------------------------------------------------
                        ORCA OPTIMIZATION COORDINATE SETUP
------------------------------------------------------------------------------

The optimization will be done in redundant internal coordinates (2022)
Making redundant internal coordinates   ...  (2022 redundants) done
Evaluating the initial hessian          ...  (Almloef) done
Evaluating the coordinates              ...  done
Calculating the B-matrix                .... done
Calculating the G-matrix                .... done
Diagonalizing the G-matrix              .... done
The first mode is                       ....    0
The number of degrees of freedom        ....    3

    -----------------------------------------------------------------
                    Redundant Internal Coordinates


    -----------------------------------------------------------------
         Definition                    Initial Value    Approx d2E/dq
    -----------------------------------------------------------------
      1. B(O   1,S   0)                  1.4501         1.209754   
      2. B(O   2,S   0)                  1.5865         0.733131   
      3. A(O   1,S   0,O   2)          120.8548         0.559890   
    -----------------------------------------------------------------

Number of atoms                         .... 3
Number of degrees of freedom            .... 3


         *************************************************************
         *                GEOMETRY OPTIMIZATION CYCLE   1            *
         *************************************************************
---------------------------------
CARTESIAN COORDINATES (ANGSTROEM)
---------------------------------
  S      0.000000    0.000000    0.000000
  O      0.000000   -1.270000    0.700000
  O      0.000000    1.370000    0.800000

----------------------------
CARTESIAN COORDINATES (A.U.)
----------------------------
  NO LB      ZA    FRAG     MASS         X           Y           Z
   0 S    16.0000    0    32.060    0.000000    0.000000    0.000000
   1 O     8.0000    0    15.999    0.000000   -2.399952    1.322808
   2 O     8.0000    0    15.999    0.000000    2.588925    1.511781

--------------------------------
INTERNAL COORDINATES (ANGSTROEM)
--------------------------------
 S      0   0   0     0.000000000000     0.00000000     0.00000000
 O      1   0   0     1.450137924475     0.00000000     0.00000000
 O      1   2   0     1.586474077948   120.85484313     0.00000000

---------------------------
INTERNAL COORDINATES (A.U.)
---------------------------
 S      0   0   0     0.000000000000     0.00000000     0.00000000
 O      1   0   0     2.740363533670     0.00000000     0.00000000
 O      1   2   0     2.998001525886   120.85484313     0.00000000

Calling /user/mai/SHARC/REPOSITORY_switchable/sharc_main/bin/otool_external orca_EXT.extinp.tmp   ... 


         *************************************************************
         *                    EXTERNAL SHARC JOB                     *
         *************************************************************

HINT: total charge per multiplicity automatically assigned, please check ([0, 1, 0]).
You can set the charge in the QMin or input files manually for each multiplicity ("charge 0 +1 0 ...")
################# Input: #################
  Interface:            LVC
  Number of states:     [4, 0, 3]
  Optimization mode:    Minimization
  Involved state(s):    2

  For all quantum chemistry infos, see these interface files:
    - QM.log
    - QM.err

############## Run section: ##############
Interface call:
$SHARC/SHARC_LVC.py QM.in >> QM.log 2> QM.err
Finished!
############ Gradient section: ###########
All data in a.u.
Energies:
      0.020051270076 
      0.129763782549 *
      0.188836156659 
      0.303601437470 
      0.128001544070 
      0.146148863090 
      0.156481174693 
      0.128001544070 
      0.146148863090 
      0.156481174693 
      0.128001544070 
      0.146148863090 
      0.156481174693 

>>> 0.1297637825494
Energy to optimize:   0.129763782549
Gradient to follow:
  0      0.000000000000      0.042926043705      0.051477044000
  1      0.000000000000     -0.017611436954     -0.014372673868
  2      0.000000000000     -0.025314606750     -0.037104370132

Writing to orca_EXT.engrad

         *************************************************************
         *                  EXTERNAL SHARC JOB DONE                   *
         *************************************************************


External program completed successfully in 2.765 sec

-------------------------------------------------   --------------------
FINAL SINGLE POINT ENERGY (From external program)         0.129763782549
-------------------------------------------------   --------------------


------------------
CARTESIAN GRADIENT
------------------

   1   S   :    0.000000000    0.042926044    0.051477044
   2   O   :    0.000000000   -0.017611437   -0.014372674
   3   O   :    0.000000000   -0.025314607   -0.037104370

Difference to translation invariance:
           :    0.0000000000    0.0000000000   -0.0000000000

Difference to rotation invariance:
           :   -0.0000000000    0.0000000000    0.0000000000

Norm of the Cartesian gradient     ...    0.0838261973
RMS gradient                       ...    0.0279420658
MAX gradient                       ...    0.0514770440
------------------------------------------------------------------------------
                         ORCA GEOMETRY RELAXATION STEP
------------------------------------------------------------------------------

Reading the OPT-File                    .... done
Getting information on internals        .... done
Copying old internal coords+grads       .... done
Making the new internal coordinates     .... (2022 redundants) done
Validating the new internal coordinates .... (2022 redundants) done
Calculating the B-matrix                .... done
Calculating the G,G- and P matrices     .... done
Transforming gradient to internals      .... done
Projecting the internal gradient        .... done
Number of atoms                         ....   3
Number of internal coordinates          ....   3
Current Energy                          ....     0.129763783 Eh
Current gradient norm                   ....     0.083826197 Eh/bohr
Maximum allowed component of the step   ....  0.300
Current trust radius                    ....  0.300
Evaluating the initial hessian          ....  (Almloef) done
Projecting the Hessian                  .... done
Forming the augmented Hessian           .... done
Diagonalizing the augmented Hessian     .... done
Last element of RFO vector              ....  0.993369597
Lowest eigenvalues of augmented Hessian:
 -0.008158842  0.565691932  0.735427751
Length of the computed step             ....  0.115731883
The final length of the internal step   ....  0.115731883
Converting the step to Cartesian space:
 Initial RMS(Int)=    0.0668178336
Transforming coordinates:
 Iter   0:  RMS(Cart)=    0.0454856261 RMS(Int)=    0.0671286681
 Iter   5:  RMS(Cart)=    0.0000000140 RMS(Int)=    0.0000000199
done
Storing new coordinates                 .... done

                                .--------------------.
          ----------------------|Geometry convergence|-------------------------
          Item                value                   Tolerance       Converged
          ---------------------------------------------------------------------
          RMS gradient        0.0410597765            0.0001000000      NO
          MAX gradient        0.0577902850            0.0003000000      NO
          RMS step            0.0668178336            0.0020000000      NO
          MAX step            0.1017346886            0.0040000000      NO
          ........................................................
          Max(Bonds)      0.0290      Max(Angles)    5.83
          Max(Dihed)        0.00      Max(Improp)    0.00
          ---------------------------------------------------------------------

The optimization has not yet converged - more geometry cycles are needed


    ---------------------------------------------------------------------------
                         Redundant Internal Coordinates
                            (Angstroem and degrees)

        Definition                    Value    dE/dq     Step     New-Value
    ----------------------------------------------------------------------------
     1. B(O   1,S   0)                1.4501  0.008486 -0.0037    1.4465   
     2. B(O   2,S   0)                1.5865 -0.040571  0.0290    1.6154   
     3. A(O   1,S   0,O   2)          120.85  0.057790   -5.83    115.03   
    ----------------------------------------------------------------------------

Geometry step timings:
Preparation and reading OPT file:      0.001 s (11.777 %)
Internal coordinates            :      0.000 s ( 0.289 %)
B/P matrices and projection     :      0.000 s ( 1.493 %)
Hessian update/contruction      :      0.004 s (50.542 %)
Making the step                 :      0.000 s ( 1.385 %)
Converting the step to Cartesian:      0.000 s ( 0.879 %)
Storing new data                :      0.001 s (14.246 %)
Checking convergence            :      0.000 s ( 0.000 %)
Final printing                  :      0.002 s (19.220 %)
Total time                      :      0.008 s

Time for energy+gradient        :      2.778 s
Time for complete geometry iter :      2.893 s

         *************************************************************
         *                GEOMETRY OPTIMIZATION CYCLE   2            *
         *************************************************************
---------------------------------
CARTESIAN COORDINATES (ANGSTROEM)
---------------------------------
  S      0.000000   -0.011665   -0.048401
  O      0.000000   -1.235316    0.722896
  O      0.000000    1.346981    0.825505

----------------------------
CARTESIAN COORDINATES (A.U.)
----------------------------
  NO LB      ZA    FRAG     MASS         X           Y           Z
   0 S    16.0000    0    32.060    0.000000   -0.022044   -0.091465
   1 O     8.0000    0    15.999    0.000000   -2.334409    1.366076
   2 O     8.0000    0    15.999    0.000000    2.545426    1.559979

--------------------------------
INTERNAL COORDINATES (ANGSTROEM)
--------------------------------
 S      0   0   0     0.000000000000     0.00000000     0.00000000
 O      1   0   0     1.446450864057     0.00000000     0.00000000
 O      1   2   0     1.615435958357   115.02587480     0.00000000

---------------------------
INTERNAL COORDINATES (A.U.)
---------------------------
 S      0   0   0     0.000000000000     0.00000000     0.00000000
 O      1   0   0     2.733395999241     0.00000000     0.00000000
 O      1   2   0     3.052731548183   115.02587480     0.00000000

Calling /user/mai/SHARC/REPOSITORY_switchable/sharc_main/bin/otool_external orca_EXT.extinp.tmp   > orca.lastext ...  done

External program completed successfully in 2.692 sec
------------------------------------------------------------------------------
                         ORCA GEOMETRY RELAXATION STEP
------------------------------------------------------------------------------

Reading the OPT-File                    .... done
Getting information on internals        .... done
Copying old internal coords+grads       .... done
Making the new internal coordinates     .... (2022 redundants) done
Validating the new internal coordinates .... (2022 redundants) done
Calculating the B-matrix                .... done
Calculating the G,G- and P matrices     .... done
Transforming gradient to internals      .... done
Projecting the internal gradient        .... done
Number of atoms                         ....   3
Number of internal coordinates          ....   3
Current Energy                          ....     0.123919925 Eh
Current gradient norm                   ....     0.031610996 Eh/bohr
Maximum allowed component of the step   ....  0.300
Current trust radius                    ....  0.300
Updating the Hessian (BFGS)             .... done
Forming the augmented Hessian           .... done
Diagonalizing the augmented Hessian     .... done
Last element of RFO vector              ....  0.995822688
Lowest eigenvalues of augmented Hessian:
 -0.002752003  0.324481586  0.735509418
Length of the computed step             ....  0.091691153
The final length of the internal step   ....  0.091691153
Converting the step to Cartesian space:
 Initial RMS(Int)=    0.0529379118
Transforming coordinates:
 Iter   0:  RMS(Cart)=    0.0399459395 RMS(Int)=    0.0532357279
done
Storing new coordinates                 .... done

                                .--------------------.
          ----------------------|Geometry convergence|-------------------------
          Item                value                   Tolerance       Converged
          ---------------------------------------------------------------------
          Energy change      -0.0058438575            0.0000050000      NO
          RMS gradient        0.0174676641            0.0001000000      NO
          MAX gradient        0.0275430016            0.0003000000      NO
          RMS step            0.0529379118            0.0020000000      NO
          MAX step            0.0869630483            0.0040000000      NO
          ........................................................
          Max(Bonds)      0.0149      Max(Angles)    4.98
          Max(Dihed)        0.00      Max(Improp)    0.00
          ---------------------------------------------------------------------

The optimization has not yet converged - more geometry cycles are needed


    ---------------------------------------------------------------------------
                         Redundant Internal Coordinates
                            (Angstroem and degrees)

        Definition                    Value    dE/dq     Step     New-Value
    ----------------------------------------------------------------------------
     1. B(O   1,S   0)                1.4465 -0.005528  0.0039    1.4504   
     2. B(O   2,S   0)                1.6154 -0.011233  0.0149    1.6303   
     3. A(O   1,S   0,O   2)          115.03  0.027543   -4.98    110.04   
    ----------------------------------------------------------------------------

Geometry step timings:
Preparation and reading OPT file:      0.001 s ( 9.303 %)
Internal coordinates            :      0.000 s ( 0.272 %)
B/P matrices and projection     :      0.000 s ( 1.303 %)
Hessian update/contruction      :      0.006 s (55.643 %)
Making the step                 :      0.000 s ( 0.603 %)
Converting the step to Cartesian:      0.000 s ( 0.282 %)
Storing new data                :      0.001 s (12.793 %)
Checking convergence            :      0.000 s ( 0.010 %)
Final printing                  :      0.002 s (19.734 %)
Total time                      :      0.010 s

Time for energy+gradient        :      2.708 s
Time for complete geometry iter :      2.825 s

         *************************************************************
         *                GEOMETRY OPTIMIZATION CYCLE   3            *
         *************************************************************
---------------------------------
CARTESIAN COORDINATES (ANGSTROEM)
---------------------------------
  S      0.000000   -0.016268   -0.088649
  O      0.000000   -1.204021    0.743758
  O      0.000000    1.320288    0.844891

----------------------------
CARTESIAN COORDINATES (A.U.)
----------------------------
  NO LB      ZA    FRAG     MASS         X           Y           Z
   0 S    16.0000    0    32.060    0.000000   -0.030742   -0.167522
   1 O     8.0000    0    15.999    0.000000   -2.275269    1.405499
   2 O     8.0000    0    15.999    0.000000    2.494984    1.596612

--------------------------------
INTERNAL COORDINATES (ANGSTROEM)
--------------------------------
 S      0   0   0     0.000000000000     0.00000000     0.00000000
 O      1   0   0     1.450398982133     0.00000000     0.00000000
 O      1   2   0     1.630300393412   110.04325943     0.00000000

---------------------------
INTERNAL COORDINATES (A.U.)
---------------------------
 S      0   0   0     0.000000000000     0.00000000     0.00000000
 O      1   0   0     2.740856861149     0.00000000     0.00000000
 O      1   2   0     3.080821259573   110.04325943     0.00000000

Calling /user/mai/SHARC/REPOSITORY_switchable/sharc_main/bin/otool_external orca_EXT.extinp.tmp   > orca.lastext ...  done

External program completed successfully in 2.530 sec
------------------------------------------------------------------------------
                         ORCA GEOMETRY RELAXATION STEP
------------------------------------------------------------------------------

Reading the OPT-File                    .... done
Getting information on internals        .... done
Copying old internal coords+grads       .... done
Making the new internal coordinates     .... (2022 redundants) done
Validating the new internal coordinates .... (2022 redundants) done
Calculating the B-matrix                .... done
Calculating the G,G- and P matrices     .... done
Transforming gradient to internals      .... done
Projecting the internal gradient        .... done
Number of atoms                         ....   3
Number of internal coordinates          ....   3
Current Energy                          ....     0.122589049 Eh
Current gradient norm                   ....     0.020195306 Eh/bohr
Maximum allowed component of the step   ....  0.300
Current trust radius                    ....  0.300
Updating the Hessian (BFGS)             .... done
Forming the augmented Hessian           .... done
Diagonalizing the augmented Hessian     .... done
Last element of RFO vector              ....  0.999939238
Lowest eigenvalues of augmented Hessian:
 -0.000156796  0.325078005  0.736027637
Length of the computed step             ....  0.011024285
The final length of the internal step   ....  0.011024285
Converting the step to Cartesian space:
 Initial RMS(Int)=    0.0063648738
Transforming coordinates:
 Iter   0:  RMS(Cart)=    0.0028540288 RMS(Int)=    0.0063658790
done
Storing new coordinates                 .... done

                                .--------------------.
          ----------------------|Geometry convergence|-------------------------
          Item                value                   Tolerance       Converged
          ---------------------------------------------------------------------
          Energy change      -0.0013308765            0.0000050000      NO
          RMS gradient        0.0082403584            0.0001000000      NO
          MAX gradient        0.0139673756            0.0003000000      NO
          RMS step            0.0063648738            0.0020000000      NO
          MAX step            0.0109121711            0.0040000000      NO
          ........................................................
          Max(Bonds)      0.0058      Max(Angles)    0.04
          Max(Dihed)        0.00      Max(Improp)    0.00
          ---------------------------------------------------------------------

The optimization has not yet converged - more geometry cycles are needed


    ---------------------------------------------------------------------------
                         Redundant Internal Coordinates
                            (Angstroem and degrees)

        Definition                    Value    dE/dq     Step     New-Value
    ----------------------------------------------------------------------------
     1. B(O   1,S   0)                1.4504 -0.013967  0.0058    1.4562   
     2. B(O   2,S   0)                1.6303  0.002138 -0.0007    1.6296   
     3. A(O   1,S   0,O   2)          110.04 -0.002013    0.04    110.08   
    ----------------------------------------------------------------------------

Geometry step timings:
Preparation and reading OPT file:      0.001 s (11.133 %)
Internal coordinates            :      0.000 s ( 0.348 %)
B/P matrices and projection     :      0.000 s ( 1.484 %)
Hessian update/contruction      :      0.006 s (56.523 %)
Making the step                 :      0.000 s ( 0.726 %)
Converting the step to Cartesian:      0.000 s ( 0.348 %)
Storing new data                :      0.001 s (13.353 %)
Checking convergence            :      0.000 s ( 0.010 %)
Final printing                  :      0.002 s (16.024 %)
Total time                      :      0.010 s

Time for energy+gradient        :      2.545 s
Time for complete geometry iter :      2.665 s

         *************************************************************
         *                GEOMETRY OPTIMIZATION CYCLE   4            *
         *************************************************************
---------------------------------
CARTESIAN COORDINATES (ANGSTROEM)
---------------------------------
  S      0.000000   -0.013957   -0.089371
  O      0.000000   -1.207485    0.744856
  O      0.000000    1.321442    0.844515

----------------------------
CARTESIAN COORDINATES (A.U.)
----------------------------
  NO LB      ZA    FRAG     MASS         X           Y           Z
   0 S    16.0000    0    32.060    0.000000   -0.026376   -0.168886
   1 O     8.0000    0    15.999    0.000000   -2.281815    1.407574
   2 O     8.0000    0    15.999    0.000000    2.497164    1.595902

--------------------------------
INTERNAL COORDINATES (ANGSTROEM)
--------------------------------
 S      0   0   0     0.000000000000     0.00000000     0.00000000
 O      1   0   0     1.456173454388     0.00000000     0.00000000
 O      1   2   0     1.629550511966   110.08174951     0.00000000

---------------------------
INTERNAL COORDINATES (A.U.)
---------------------------
 S      0   0   0     0.000000000000     0.00000000     0.00000000
 O      1   0   0     2.751769032280     0.00000000     0.00000000
 O      1   2   0     3.079404189007   110.08174951     0.00000000

Calling /user/mai/SHARC/REPOSITORY_switchable/sharc_main/bin/otool_external orca_EXT.extinp.tmp   > orca.lastext ...  done

External program completed successfully in 2.554 sec
------------------------------------------------------------------------------
                         ORCA GEOMETRY RELAXATION STEP
------------------------------------------------------------------------------

Reading the OPT-File                    .... done
Getting information on internals        .... done
Copying old internal coords+grads       .... done
Making the new internal coordinates     .... (2022 redundants) done
Validating the new internal coordinates .... (2022 redundants) done
Calculating the B-matrix                .... done
Calculating the G,G- and P matrices     .... done
Transforming gradient to internals      .... done
Projecting the internal gradient        .... done
Number of atoms                         ....   3
Number of internal coordinates          ....   3
Current Energy                          ....     0.122472929 Eh
Current gradient norm                   ....     0.009945171 Eh/bohr
Maximum allowed component of the step   ....  0.300
Current trust radius                    ....  0.300
Updating the Hessian (BFGS)             .... done
Forming the augmented Hessian           .... done
Diagonalizing the augmented Hessian     .... done
Last element of RFO vector              ....  0.999917228
Lowest eigenvalues of augmented Hessian:
 -0.000081207  0.302278919  0.714336138
Length of the computed step             ....  0.012867177
The final length of the internal step   ....  0.012867177
Converting the step to Cartesian space:
 Initial RMS(Int)=    0.0074288681
Transforming coordinates:
 Iter   0:  RMS(Cart)=    0.0031723647 RMS(Int)=    0.0074293014
done
Storing new coordinates                 .... done

                                .--------------------.
          ----------------------|Geometry convergence|-------------------------
          Item                value                   Tolerance       Converged
          ---------------------------------------------------------------------
          Energy change      -0.0001161194            0.0000050000      NO
          RMS gradient        0.0039638275            0.0001000000      NO
          MAX gradient        0.0067957501            0.0003000000      NO
          RMS step            0.0074288681            0.0020000000      NO
          MAX step            0.0118503913            0.0040000000      NO
          ........................................................
          Max(Bonds)      0.0063      Max(Angles)    0.29
          Max(Dihed)        0.00      Max(Improp)    0.00
          ---------------------------------------------------------------------

The optimization has not yet converged - more geometry cycles are needed


    ---------------------------------------------------------------------------
                         Redundant Internal Coordinates
                            (Angstroem and degrees)

        Definition                    Value    dE/dq     Step     New-Value
    ----------------------------------------------------------------------------
     1. B(O   1,S   0)                1.4562 -0.006796  0.0063    1.4624   
     2. B(O   2,S   0)                1.6296  0.000976 -0.0003    1.6292   
     3. A(O   1,S   0,O   2)          110.08  0.000023   -0.29    109.80   
    ----------------------------------------------------------------------------

Geometry step timings:
Preparation and reading OPT file:      0.001 s (10.783 %)
Internal coordinates            :      0.000 s ( 0.265 %)
B/P matrices and projection     :      0.000 s ( 1.417 %)
Hessian update/contruction      :      0.005 s (56.256 %)
Making the step                 :      0.000 s ( 0.588 %)
Converting the step to Cartesian:      0.000 s ( 0.265 %)
Storing new data                :      0.001 s (12.465 %)
Checking convergence            :      0.000 s ( 0.012 %)
Final printing                  :      0.002 s (17.926 %)
Total time                      :      0.009 s

Time for energy+gradient        :      2.568 s
Time for complete geometry iter :      2.670 s

         *************************************************************
         *                GEOMETRY OPTIMIZATION CYCLE   5            *
         *************************************************************
---------------------------------
CARTESIAN COORDINATES (ANGSTROEM)
---------------------------------
  S      0.000000   -0.011689   -0.092642
  O      0.000000   -1.208822    0.747368
  O      0.000000    1.320512    0.845274

----------------------------
CARTESIAN COORDINATES (A.U.)
----------------------------
  NO LB      ZA    FRAG     MASS         X           Y           Z
   0 S    16.0000    0    32.060    0.000000   -0.022090   -0.175067
   1 O     8.0000    0    15.999    0.000000   -2.284343    1.412321
   2 O     8.0000    0    15.999    0.000000    2.495406    1.597336

--------------------------------
INTERNAL COORDINATES (ANGSTROEM)
--------------------------------
 S      0   0   0     0.000000000000     0.00000000     0.00000000
 O      1   0   0     1.462444411337     0.00000000     0.00000000
 O      1   2   0     1.629246739182   109.79640190     0.00000000

---------------------------
INTERNAL COORDINATES (A.U.)
---------------------------
 S      0   0   0     0.000000000000     0.00000000     0.00000000
 O      1   0   0     2.763619423510     0.00000000     0.00000000
 O      1   2   0     3.078830141638   109.79640190     0.00000000

Calling /user/mai/SHARC/REPOSITORY_switchable/sharc_main/bin/otool_external orca_EXT.extinp.tmp   > orca.lastext ...  done

External program completed successfully in 2.808 sec
------------------------------------------------------------------------------
                         ORCA GEOMETRY RELAXATION STEP
------------------------------------------------------------------------------

Reading the OPT-File                    .... done
Getting information on internals        .... done
Copying old internal coords+grads       .... done
Making the new internal coordinates     .... (2022 redundants) done
Validating the new internal coordinates .... (2022 redundants) done
Calculating the B-matrix                .... done
Calculating the G,G- and P matrices     .... done
Transforming gradient to internals      .... done
Projecting the internal gradient        .... done
Number of atoms                         ....   3
Number of internal coordinates          ....   3
Current Energy                          ....     0.122431614 Eh
Current gradient norm                   ....     0.000181464 Eh/bohr
Maximum allowed component of the step   ....  0.300
Current trust radius                    ....  0.300
Updating the Hessian (BFGS)             .... done
Forming the augmented Hessian           .... done
Diagonalizing the augmented Hessian     .... done
Last element of RFO vector              ....  0.999999867
Lowest eigenvalues of augmented Hessian:
 -0.000000081  0.293802366  0.713936047
Length of the computed step             ....  0.000515261
The final length of the internal step   ....  0.000515261
Converting the step to Cartesian space:
 Initial RMS(Int)=    0.0002974860
Transforming coordinates:
 Iter   0:  RMS(Cart)=    0.0002102730 RMS(Int)=    0.0002974959
done
Storing new coordinates                 .... done

                                .--------------------.
          ----------------------|Geometry convergence|-------------------------
          Item                value                   Tolerance       Converged
          ---------------------------------------------------------------------
          Energy change      -0.0000413148            0.0000050000      NO
          RMS gradient        0.0000926667            0.0001000000      YES
          MAX gradient        0.0001305941            0.0003000000      YES
          RMS step            0.0002974860            0.0020000000      YES
          MAX step            0.0004432077            0.0040000000      YES
          ........................................................
          Max(Bonds)      0.0001      Max(Angles)    0.03
          Max(Dihed)        0.00      Max(Improp)    0.00
          ---------------------------------------------------------------------

       Everything but the energy has converged. However, the energy
       appears to be close enough to convergence to make sure that the
       final evaluation at the new geometry represents the equilibrium energy.
       Convergence will therefore be signaled now


                    ***********************HURRAY********************
                    ***        THE OPTIMIZATION HAS CONVERGED     ***
                    *************************************************


    ---------------------------------------------------------------------------
                         Redundant Internal Coordinates

                          --- Optimized Parameters ---  
                            (Angstroem and degrees)

        Definition                    OldVal   dE/dq     Step     FinalVal
    ----------------------------------------------------------------------------
     1. B(O   1,S   0)                1.4624 -0.000088  0.0001    1.4626   
     2. B(O   2,S   0)                1.6292  0.000031  0.0000    1.6292   
     3. A(O   1,S   0,O   2)          109.80  0.000131   -0.03    109.77   
    ----------------------------------------------------------------------------

Geometry step timings:
Preparation and reading OPT file:      0.001 s (11.870 %)
Internal coordinates            :      0.000 s ( 0.298 %)
B/P matrices and projection     :      0.000 s ( 1.322 %)
Hessian update/contruction      :      0.006 s (58.455 %)
Making the step                 :      0.000 s ( 0.616 %)
Converting the step to Cartesian:      0.000 s ( 0.278 %)
Storing new data                :      0.001 s (12.944 %)
Checking convergence            :      0.000 s ( 0.010 %)
Final printing                  :      0.001 s (14.147 %)
Total time                      :      0.010 s
                 *******************************************************
                 *** FINAL ENERGY EVALUATION AT THE STATIONARY POINT ***
                 ***               (AFTER    5 CYCLES)               ***
                 *******************************************************
---------------------------------
CARTESIAN COORDINATES (ANGSTROEM)
---------------------------------
  S      0.000000   -0.011646   -0.092856
  O      0.000000   -1.208705    0.747501
  O      0.000000    1.320351    0.845354

----------------------------
CARTESIAN COORDINATES (A.U.)
----------------------------
  NO LB      ZA    FRAG     MASS         X           Y           Z
   0 S    16.0000    0    32.060    0.000000   -0.022008   -0.175471
   1 O     8.0000    0    15.999    0.000000   -2.284122    1.412572
   2 O     8.0000    0    15.999    0.000000    2.495102    1.597488

--------------------------------
INTERNAL COORDINATES (ANGSTROEM)
--------------------------------
 S      0   0   0     0.000000000000     0.00000000     0.00000000
 O      1   0   0     1.462583449497     0.00000000     0.00000000
 O      1   2   0     1.629249445453   109.77100796     0.00000000

---------------------------
INTERNAL COORDINATES (A.U.)
---------------------------
 S      0   0   0     0.000000000000     0.00000000     0.00000000
 O      1   0   0     2.763882167555     0.00000000     0.00000000
 O      1   2   0     3.078835255749   109.77100796     0.00000000

Calling /user/mai/SHARC/REPOSITORY_switchable/sharc_main/bin/otool_external orca_EXT.extinp.tmp   ... 


         *************************************************************
         *                    EXTERNAL SHARC JOB                     *
         *************************************************************

HINT: total charge per multiplicity automatically assigned, please check ([0, 1, 0]).
You can set the charge in the QMin or input files manually for each multiplicity ("charge 0 +1 0 ...")
################# Input: #################
  Interface:            LVC
  Number of states:     [4, 0, 3]
  Optimization mode:    Minimization
  Involved state(s):    2

  For all quantum chemistry infos, see these interface files:
    - QM.log
    - QM.err

############## Run section: ##############
Interface call:
$SHARC/SHARC_LVC.py QM.in >> QM.log 2> QM.err
Finished!
############ Gradient section: ###########
All data in a.u.
Energies:
      0.036591503366 
      0.122431572521 *
      0.198360823163 
      0.301160891808 
      0.137130026391 
      0.140083801502 
      0.156245300311 
      0.137130026391 
      0.140083801502 
      0.156245300311 
      0.137130026391 
      0.140083801502 
      0.156245300311 

>>> 0.1224315725211
Energy to optimize:   0.122431572521
Gradient to follow:
  0      0.000000000000     -0.000001268731      0.000002807884
  1      0.000000000000     -0.000001239558     -0.000001997474
  2      0.000000000000      0.000002508289     -0.000000810410

Writing to orca_EXT.engrad

         *************************************************************
         *                  EXTERNAL SHARC JOB DONE                   *
         *************************************************************


External program completed successfully in 2.810 sec

-------------------------------------------------   --------------------
FINAL SINGLE POINT ENERGY (From external program)         0.122431572521
-------------------------------------------------   --------------------


------------------
CARTESIAN GRADIENT
------------------

   1   S   :    0.000000000   -0.000001269    0.000002808
   2   O   :    0.000000000   -0.000001240   -0.000001997
   3   O   :    0.000000000    0.000002508   -0.000000810

Difference to translation invariance:
           :    0.0000000000    0.0000000000   -0.0000000000

Difference to rotation invariance:
           :   -0.0000000000    0.0000000000    0.0000000000

Norm of the Cartesian gradient     ...    0.0000046871
RMS gradient                       ...    0.0000015624
MAX gradient                       ...    0.0000028079
                                *** OPTIMIZATION RUN DONE ***


--------------------------------
SUGGESTED CITATIONS FOR THIS RUN
--------------------------------

Below you find a list of papers that are relevant to this ORCA run
We neither can nor want to force you to cite these papers, but we appreciate if you do
You receive ORCA, which is the product of decades of hard work by many enthusiastic individuals, for free
The only thing we kindly ask in return is that you cite our papers,
We deeply appreciate it, if you show your appreciation for ORCA by not just citing the generic ORCA reference.

Please note that relegating all ORCA citations to the supporting information does *not* help us.
SI sections are not indexed - citations you put there will not count into any citation statistics
But we need these citations in order to attract the funding resources that allow us to do what we are doing

Therefore, if you are a happy ORCA user, please consider citing a few of the papers listed below in the main body of your paper

In addition to the list printed below, the program has created the file orca.bibtex that contains the list in bibtex format
You can import this file easily into all common literature databanks and citation aid programs


List of essential papers. We consider these as the minimum necessary citations

  1. Neese,F.
     Software update: the ORCA program system, version 5.0
     WIRES Comput. Molec. Sci., 2022 12(1)e1606
     doi.org/10.1002/wcms.1606

List of papers to cite with high priority. The work reported in these papers was absolutely
necessary for this run to complete.
Our perspective: the developers of density functionals and basis sets usually get cited in chemistry papers
Good! But without the algorithms to do something with them, the functionals or basis sets would not do anything.
Hence, in our opinion, the algorithm design and method developments papers are equally worthy of getting cited

  1. Neese,F.
     The SHARK Integral Generation and Digestion System
     J. Comp. Chem., 2022  1-16
     doi.org/10.1002/jcc.26942

List of suggested additional citations. These are papers that are important in the 'surrounding' of 
of this run, or papers that preceded the highly important papers. If you like your results we are grateful for a citation.

  1. Neese,F.
     The ORCA program system
     WIRES Comput. Molec. Sci., 2012 2(1)73-78
     doi.org/10.1002/wcms.81
  2. Neese,F.
     Software update: the ORCA program system, version 4.0
     WIRES Comput. Molec. Sci., 2018 8(1)1-6
     doi.org/10.1002/wcms.1327
  3. Neese,F.; Wennmohs,F.; Becker,U.; Riplinger,C.
     The ORCA quantum chemistry program package
     J. Chem. Phys., 2020 152 Art. No. L224108
     doi.org/10.1063/5.0004608

List of optional additional citations

  1. Neese,F.
     Approximate second-order SCF convergence for spin unrestricted wavefunctions
     Chem. Phys. Lett., 2000 325(1-3)93-98
     doi.org/10.1016/s0009-2614(00)00662-x

Timings for individual modules:

Sum of individual times          ...       16.314 sec (=   0.272 min)
Geometry relaxation              ...        0.079 sec (=   0.001 min)   0.5 %
External energy and gradient     ...       16.235 sec (=   0.271 min)  99.5 %
                             ****ORCA TERMINATED NORMALLY****
TOTAL RUN TIME: 0 days 0 hours 0 minutes 17 seconds 43 msec
