 Entering Gaussian System, Link 0=/usr/license/gaussian16_new/rev_c01/avx2/g16/g16
 Initial command:
 /usr/license/gaussian16_new/rev_c01/avx2/g16/l1.exe "./Gau-67673.inp" -scrdir="./"
 Entering Link 1 = /usr/license/gaussian16_new/rev_c01/avx2/g16/l1.exe PID=     67688.
  
 Copyright (c) 1988-2019, Gaussian, Inc.  All Rights Reserved.
  
 This is part of the Gaussian(R) 16 program.  It is based on
 the Gaussian(R) 09 system (copyright 2009, Gaussian, Inc.),
 the Gaussian(R) 03 system (copyright 2003, Gaussian, Inc.),
 the Gaussian(R) 98 system (copyright 1998, Gaussian, Inc.),
 the Gaussian(R) 94 system (copyright 1995, Gaussian, Inc.),
 the Gaussian 92(TM) system (copyright 1992, Gaussian, Inc.),
 the Gaussian 90(TM) system (copyright 1990, Gaussian, Inc.),
 the Gaussian 88(TM) system (copyright 1988, Gaussian, Inc.),
 the Gaussian 86(TM) system (copyright 1986, Carnegie Mellon
 University), and the Gaussian 82(TM) system (copyright 1983,
 Carnegie Mellon University). Gaussian is a federally registered
 trademark of Gaussian, Inc.
  
 This software contains proprietary and confidential information,
 including trade secrets, belonging to Gaussian, Inc.
  
 This software is provided under written license and may be
 used, copied, transmitted, or stored only in accord with that
 written license.
  
 The following legend is applicable only to US Government
 contracts under FAR:
  
                    RESTRICTED RIGHTS LEGEND
  
 Use, reproduction and disclosure by the US Government is
 subject to restrictions as set forth in subparagraphs (a)
 and (c) of the Commercial Computer Software - Restricted
 Rights clause in FAR 52.227-19.
  
 Gaussian, Inc.
 340 Quinnipiac St., Bldg. 40, Wallingford CT 06492
  
  
 ---------------------------------------------------------------
 Warning -- This program may not be used in any manner that
 competes with the business of Gaussian, Inc. or will provide
 assistance to any competitor of Gaussian, Inc.  The licensee
 of this program is prohibited from giving any competitor of
 Gaussian, Inc. access to this program.  By using this program,
 the user acknowledges that Gaussian, Inc. is engaged in the
 business of creating and licensing software in the field of
 computational chemistry and represents and warrants to the
 licensee that it is not a competitor of Gaussian, Inc. and that
 it will not use this program in any manner prohibited above.
 ---------------------------------------------------------------
  

 Cite this work as:
 Gaussian 16, Revision C.01,
 M. J. Frisch, G. W. Trucks, H. B. Schlegel, G. E. Scuseria, 
 M. A. Robb, J. R. Cheeseman, G. Scalmani, V. Barone, 
 G. A. Petersson, H. Nakatsuji, X. Li, M. Caricato, A. V. Marenich, 
 J. Bloino, B. G. Janesko, R. Gomperts, B. Mennucci, H. P. Hratchian, 
 J. V. Ortiz, A. F. Izmaylov, J. L. Sonnenberg, D. Williams-Young, 
 F. Ding, F. Lipparini, F. Egidi, J. Goings, B. Peng, A. Petrone, 
 T. Henderson, D. Ranasinghe, V. G. Zakrzewski, J. Gao, N. Rega, 
 G. Zheng, W. Liang, M. Hada, M. Ehara, K. Toyota, R. Fukuda, 
 J. Hasegawa, M. Ishida, T. Nakajima, Y. Honda, O. Kitao, H. Nakai, 
 T. Vreven, K. Throssell, J. A. Montgomery, Jr., J. E. Peralta, 
 F. Ogliaro, M. J. Bearpark, J. J. Heyd, E. N. Brothers, K. N. Kudin, 
 V. N. Staroverov, T. A. Keith, R. Kobayashi, J. Normand, 
 K. Raghavachari, A. P. Rendell, J. C. Burant, S. S. Iyengar, 
 J. Tomasi, M. Cossi, J. M. Millam, M. Klene, C. Adamo, R. Cammi, 
 J. W. Ochterski, R. L. Martin, K. Morokuma, O. Farkas, 
 J. B. Foresman, and D. J. Fox, Gaussian, Inc., Wallingford CT, 2019.
 
 ******************************************
 Gaussian 16:  ES64L-G16RevC.01  3-Jul-2019
                 6-May-2025 
 ******************************************
 %MEM=8000MB
 %NProcShared=8
 Will use up to    8 processors via shared memory.
 %Chk=GAUSSIAN.chk
 Default route: IOP(99/10=0)
 ----------------------------------------------------------------------
 #p nosym unit=AU wb97xd def2svp tda(nstates=1,triplets,root=1,conver=6
 ) density=Current GFINPUT charge
 ----------------------------------------------------------------------
 1/18=10,20=1,28=-2,30=1,38=1,125=101,172=1/1;
 2/12=2,15=1,17=6,18=5,40=1/2;
 3/5=43,7=101,11=9,24=10,25=1,30=1,71=1,74=-58/1,2,3,8;
 4//1;
 5/5=2,38=5/2;
 8/6=1,10=1,107=1,108=1/1;
 9/8=1,9=6,15=1,41=1,42=1,48=3/14;
 10/5=4,13=10,28=1,31=1/2;
 6/7=2,8=2,9=2,10=2,22=-1/1;
 99/5=1,9=1/99;
 Leave Link    1 at Tue May  6 19:25:57 2025, MaxMem=  1048576000 cpu:               3.8 elap:               0.5
 (Enter /usr/license/gaussian16_new/rev_c01/avx2/g16/l101.exe)
 ------------------
 SHARC-GAUSSIAN job
 ------------------
 Symbolic Z-matrix:
 Charge =  0 Multiplicity = 1
 N                    -11.09344  -3.06796   20.21407 
 N                    -12.40982  -3.77919   15.72357 
 C                    -11.01477  -2.92916   22.76859 
 C                    -9.06337  -1.38226   23.58265 
 C                    -7.82071  -0.52074   21.43119 
 C                    -9.10963  -1.56796   19.32415 
 C                    -8.73678  -1.2559    16.7271 
 C                    -10.35209  -2.30504   14.93998 
 C                    -10.47811  -2.11933   12.2731 
 C                    -12.52774  -3.42501   11.44317 
 C                    -13.7069  -4.4282    13.63875 
 B                    -12.91758  -4.61773   18.50724 
 F                    -12.43626  -7.19481   18.7824 
 F                    -15.42918  -4.13911   19.16134 
 H                    -7.45958  -0.15316   16.24311 
 H                    -15.09834  -5.37969   13.66604 
 H                    -6.41837   0.63178   21.47023 
 H                    -8.56867  -0.99553   25.29456 
 H                    -13.14075  -3.63751   9.75602 
 H                    -12.11395  -4.02041   23.75213 
 H                    -9.21551  -1.03382   11.31432 
 
 ITRead=  0  0  0  0  0  0  0  0  0  0  0  0  0  0  0  0  0  0  0  0
 ITRead=  0
 MicOpt= -1 -1 -1 -1 -1 -1 -1 -1 -1 -1 -1 -1 -1 -1 -1 -1 -1 -1 -1 -1
 MicOpt= -1
 NAtoms=     21 NQM=       21 NQMF=       0 NMMI=      0 NMMIF=      0
                NMic=       0 NMicF=      0.
                    Isotopes and Nuclear Properties:
 (Nuclear quadrupole moments (NQMom) in fm**2, nuclear magnetic moments (NMagM)
  in nuclear magnetons)

  Atom         1           2           3           4           5           6           7           8           9          10
 IAtWgt=          14          14          12          12          12          12          12          12          12          12
 AtmWgt=  14.0030740  14.0030740  12.0000000  12.0000000  12.0000000  12.0000000  12.0000000  12.0000000  12.0000000  12.0000000
 NucSpn=           2           2           0           0           0           0           0           0           0           0
 AtZEff=  -0.0000000  -0.0000000  -0.0000000  -0.0000000  -0.0000000  -0.0000000  -0.0000000  -0.0000000  -0.0000000  -0.0000000
 NQMom=    2.0440000   2.0440000   0.0000000   0.0000000   0.0000000   0.0000000   0.0000000   0.0000000   0.0000000   0.0000000
 NMagM=    0.4037610   0.4037610   0.0000000   0.0000000   0.0000000   0.0000000   0.0000000   0.0000000   0.0000000   0.0000000
 AtZNuc=   7.0000000   7.0000000   6.0000000   6.0000000   6.0000000   6.0000000   6.0000000   6.0000000   6.0000000   6.0000000

  Atom        11          12          13          14          15          16          17          18          19          20
 IAtWgt=          12          11          19          19           1           1           1           1           1           1
 AtmWgt=  12.0000000  11.0093053  18.9984032  18.9984032   1.0078250   1.0078250   1.0078250   1.0078250   1.0078250   1.0078250
 NucSpn=           0           3           1           1           1           1           1           1           1           1
 AtZEff=  -0.0000000  -0.0000000  -0.0000000  -0.0000000  -0.0000000  -0.0000000  -0.0000000  -0.0000000  -0.0000000  -0.0000000
 NQMom=    0.0000000   4.0590000   0.0000000   0.0000000   0.0000000   0.0000000   0.0000000   0.0000000   0.0000000   0.0000000
 NMagM=    0.0000000   2.6886370   2.6288670   2.6288670   2.7928460   2.7928460   2.7928460   2.7928460   2.7928460   2.7928460
 AtZNuc=   6.0000000   5.0000000   9.0000000   9.0000000   1.0000000   1.0000000   1.0000000   1.0000000   1.0000000   1.0000000

  Atom        21
 IAtWgt=           1
 AtmWgt=   1.0078250
 NucSpn=           1
 AtZEff=  -0.0000000
 NQMom=    0.0000000
 NMagM=    2.7928460
 AtZNuc=   1.0000000
 Background charge distribution read from input stream:
 Point Charges:
 XYZ=   -0.7994    3.4420   10.6968 Q=    0.0202 A=    0.0000 R=    0.0000 C=    0.0000
 XYZ=   -1.4960    3.0656    8.3206 Q=   -0.0149 A=    0.0000 R=    0.0000 C=    0.0000
 XYZ=   -0.7578    3.5155   12.0486 Q=   -0.0586 A=    0.0000 R=    0.0000 C=    0.0000
 XYZ=    0.2749    4.3340   12.4794 Q=   -0.2211 A=    0.0000 R=    0.0000 C=    0.0000
 XYZ=    0.9325    4.7899   11.3409 Q=   -0.1749 A=    0.0000 R=    0.0000 C=    0.0000
 XYZ=    0.2504    4.2358   10.2259 Q=    0.0079 A=    0.0000 R=    0.0000 C=    0.0000
 XYZ=    0.4477    4.4009    8.8516 Q=   -0.0883 A=    0.0000 R=    0.0000 C=    0.0000
 XYZ=   -0.4071    3.8457    7.9059 Q=    0.0286 A=    0.0000 R=    0.0000 C=    0.0000
 XYZ=   -0.4738    3.9440    6.4946 Q=   -0.1611 A=    0.0000 R=    0.0000 C=    0.0000
 XYZ=   -1.5584    3.2531    6.0555 Q=   -0.2328 A=    0.0000 R=    0.0000 C=    0.0000
 XYZ=   -2.1824    2.7222    7.2173 Q=   -0.0193 A=    0.0000 R=    0.0000 C=    0.0000
 XYZ=   -1.7647    2.6219    9.7936 Q=    0.3701 A=    0.0000 R=    0.0000 C=    0.0000
 XYZ=   -1.5100    1.2582    9.9392 Q=   -0.3388 A=    0.0000 R=    0.0000 C=    0.0000
 XYZ=   -3.0938    2.8752   10.1397 Q=   -0.3446 A=    0.0000 R=    0.0000 C=    0.0000
 XYZ=    1.1236    4.9845    8.5955 Q=    0.1813 A=    0.0000 R=    0.0000 C=    0.0000
 XYZ=   -2.9187    2.2187    7.2318 Q=    0.1734 A=    0.0000 R=    0.0000 C=    0.0000
 XYZ=    1.6745    5.3998   11.3616 Q=    0.1764 A=    0.0000 R=    0.0000 C=    0.0000
 XYZ=    0.5367    4.5387   13.3853 Q=    0.1742 A=    0.0000 R=    0.0000 C=    0.0000
 XYZ=   -1.8828    3.1406    5.1627 Q=    0.1776 A=    0.0000 R=    0.0000 C=    0.0000
 XYZ=   -1.3394    2.9380   12.5691 Q=    0.1817 A=    0.0000 R=    0.0000 C=    0.0000
 XYZ=    0.1944    4.5184    5.9873 Q=    0.1629 A=    0.0000 R=    0.0000 C=    0.0000
 Pt Chg Charge=             -0.0000 electrons
 Pt Chg Dipole moment (Debye):
    X=              3.4752    Y=              3.5747    Z=             -1.6268  Tot=              5.2443
 Pt Chg Quadrupole moment (Debye-Ang):
   XX=             -3.0455   YY=             23.2809   ZZ=            -11.8645
   XY=             13.4282   XZ=             38.9762   YZ=             30.1425
 Pt Chg Traceless Quadrupole moment (Debye-Ang):
   XX=             -5.8358   YY=             20.4906   ZZ=            -14.6548
   XY=             13.4282   XZ=             38.9762   YZ=             30.1425
 Pt Chg Octapole moment (Debye-Ang**2):
  XXX=             26.5311  YYY=            136.3778  ZZZ=             97.3220  XYY=             65.3640
  XXY=             -2.0136  XXZ=            -50.0479  XZZ=            410.8379  YZZ=            320.4385
  YYZ=            208.9271  XYZ=            141.1756
 Pt Chg Hexadecapole moment (Debye-Ang**3):
 XXXX=            -70.5535 YYYY=            787.1618 ZZZZ=           4938.2273 XXXY=             94.7584
 XXXZ=            336.6740 YYYX=            331.9311 YYYZ=           1253.2823 ZZZX=           4198.2819
 ZZZY=           4035.3339 XXYY=             24.6405 XXZZ=           -601.9243 YYZZ=           2159.5771
 XXYZ=            -58.8961 YYXZ=            663.1288 ZZXY=           1454.4260
 Leave Link  101 at Tue May  6 19:25:57 2025, MaxMem=  1048576000 cpu:               0.3 elap:               0.1
 (Enter /usr/license/gaussian16_new/rev_c01/avx2/g16/l202.exe)
                          Input orientation:                          
 ---------------------------------------------------------------------
 Center     Atomic      Atomic             Coordinates (Angstroms)
 Number     Number       Type             X           Y           Z
 ---------------------------------------------------------------------
      1          7           0       -5.870397   -1.623493   10.696823
      2          7           0       -6.566994   -1.999859    8.320554
      3          6           0       -5.828766   -1.550043   12.048621
      4          6           0       -4.796127   -0.731458   12.479403
      5          6           0       -4.138539   -0.275563   11.340896
      6          6           0       -4.820611   -0.829729   10.225902
      7          6           0       -4.623304   -0.664594    8.851599
      8          6           0       -5.478091   -1.219772    7.905895
      9          6           0       -5.544777   -1.121502    6.494644
     10          6           0       -6.629393   -1.812436    6.055465
     11          6           0       -7.253378   -2.343300    7.217316
     12          5           0       -6.835691   -2.443597    9.793609
     13          9           0       -6.580984   -3.807331    9.939218
     14          9           0       -8.164769   -2.190322   10.139746
     15          1           0       -3.947440   -0.081048    8.595481
     16          1           0       -7.989698   -2.846811    7.231759
     17          1           0       -3.396456    0.334323   11.361554
     18          1           0       -4.534343   -0.526812   13.385304
     19          1           0       -6.953785   -1.924890    5.162663
     20          1           0       -6.410428   -2.127510   12.569086
     21          1           0       -4.876636   -0.547074    5.987278
 ---------------------------------------------------------------------
                    Distance matrix (angstroms):
                    1          2          3          4          5
     1  N    0.000000
     2  N    2.504706   0.000000
     3  C    1.354432   3.826983   0.000000
     4  C    2.264371   4.694767   1.386361   0.000000
     5  C    2.287155   4.241822   2.232049   1.391568   0.000000
     6  C    1.397812   2.837148   2.203981   2.255776   1.419695
     7  C    2.424784   2.417203   3.529605   3.632534   2.565724
     8  C    2.847134   1.402208   4.170639   4.649785   3.805938
     9  C    4.244565   2.269446   5.577720   6.044001   5.116569
    10  C    4.706801   2.273686   6.052088   6.767301   6.041698
    11  C    3.812837   1.343953   5.099047   6.027079   5.566118
    12  B    1.555686   1.561727   2.626293   3.782160   3.790659
    13  F    2.418274   2.426360   3.179742   4.370269   4.517037
    14  F    2.428121   2.428708   3.083938   4.353163   4.617314
    15  H    3.239219   3.258755   4.197798   4.028418   2.758923
    16  H    4.242006   1.981638   5.436303   6.497029   6.190941
    17  H    3.224174   4.974776   3.152622   2.084359   0.960768
    18  H    3.196198   5.652719   2.123500   0.964918   2.097473
    19  H    5.647256   3.182374   6.987317   7.721040   6.986877
    20  H    2.012718   4.253332   0.970918   2.136111   3.177993
    21  H    4.932145   3.226774   6.217104   6.495242   5.411075
                    6          7          8          9         10
     6  C    0.000000
     7  C    1.398180   0.000000
     8  C    2.442713   1.390410   0.000000
     9  C    3.812064   2.571598   1.416239   0.000000
    10  C    4.650801   3.627713   2.258504   1.358919   0.000000
    11  C    4.154617   3.522247   2.210905   2.221343   1.421644
    12  B    2.617631   2.991135   2.627601   3.781212   3.796662
    13  F    3.470910   3.859044   3.470769   4.489153   4.366404
    14  F    3.611375   4.065605   3.626334   4.614488   4.379672
    15  H    1.995300   0.928932   2.028574   2.836820   4.079492
    16  H    4.803814   4.326495   3.067554   3.081829   2.074615
    17  H    2.161698   2.966962   4.323193   5.515571   6.573814
    18  H    3.186774   4.536670   5.603104   6.989694   7.731016
    19  H    5.602339   4.541777   3.193773   2.098788   0.956541
    20  H    3.114846   4.376488   4.841342   6.217737   6.524912
    21  H    4.248407   2.877903   2.120227   1.016760   2.162856
                   11         12         13         14         15
    11  C    0.000000
    12  B    2.611859   0.000000
    13  F    3.162950   1.394937   0.000000
    14  F    3.065067   1.396570   2.272291   0.000000
    15  H    4.236313   3.919074   4.756718   4.961820   0.000000
    16  H    0.892132   2.838554   3.199595   2.986305   5.084194
    17  H    6.262605   4.690803   5.414569   5.532039   2.850838
    18  H    6.981179   4.676595   5.179387   5.145960   4.846191
    19  H    2.118118   4.661402   5.147625   5.129161   4.921596
    20  H    5.422045   2.825603   3.125235   2.997224   5.103318
    21  H    3.223092   4.682185   5.399251   5.545726   2.807723
                   16         17         18         19         20
    16  H    0.000000
    17  H    6.947855   0.000000
    18  H    7.428862   2.476268   0.000000
    19  H    2.490826   7.495658   8.684477   0.000000
    20  H    5.612357   4.074651   2.597718   7.429091   0.000000
    21  H    4.065548   5.643637   7.405968   2.625436   6.940497
                   21
    21  H    0.000000
 Symmetry turned off by external request.
 Stoichiometry    C9H7BF2N2
 Framework group  C1[X(C9H7BF2N2)]
 Deg. of freedom    57
 Full point group                 C1      NOp   1
 Rotational constants (GHZ):           1.2887992           0.6413832           0.4683174
 Leave Link  202 at Tue May  6 19:25:57 2025, MaxMem=  1048576000 cpu:               0.0 elap:               0.0
 (Enter /usr/license/gaussian16_new/rev_c01/avx2/g16/l301.exe)
 Standard basis: def2SVP (5D, 7F)
 Ernie: Thresh=  0.10000D-02 Tol=  0.10000D-05 Strict=F.
 AO basis set in the form of general basis input (Overlap normalization):
      1 0
 S   5 1.00       0.000000000000
      0.1712841585D+04 -0.5447799580D-02
      0.2576481268D+03 -0.4062717463D-01
      0.5845824585D+02 -0.1811196225D+00
      0.1619836791D+02 -0.4684397556D+00
      0.5005260081D+01 -0.4461684629D+00
 S   1 1.00       0.000000000000
      0.5873185657D+00  0.1000000000D+01
 S   1 1.00       0.000000000000
      0.1876459225D+00  0.1000000000D+01
 P   3 1.00       0.000000000000
      0.1357147023D+02 -0.5884811697D-01
      0.2925737287D+01 -0.3202462476D+00
      0.7992775075D+00 -0.7532822652D+00
 P   1 1.00       0.000000000000
      0.2195434803D+00  0.1000000000D+01
 D   1 1.00       0.000000000000
      0.1000000000D+01  0.1000000000D+01
 ****
      2 0
 S   5 1.00       0.000000000000
      0.1712841585D+04 -0.5447799580D-02
      0.2576481268D+03 -0.4062717463D-01
      0.5845824585D+02 -0.1811196225D+00
      0.1619836791D+02 -0.4684397556D+00
      0.5005260081D+01 -0.4461684629D+00
 S   1 1.00       0.000000000000
      0.5873185657D+00  0.1000000000D+01
 S   1 1.00       0.000000000000
      0.1876459225D+00  0.1000000000D+01
 P   3 1.00       0.000000000000
      0.1357147023D+02 -0.5884811697D-01
      0.2925737287D+01 -0.3202462476D+00
      0.7992775075D+00 -0.7532822652D+00
 P   1 1.00       0.000000000000
      0.2195434803D+00  0.1000000000D+01
 D   1 1.00       0.000000000000
      0.1000000000D+01  0.1000000000D+01
 ****
      3 0
 S   5 1.00       0.000000000000
      0.1238401694D+04  0.5517365048D-02
      0.1862900499D+03  0.4108882856D-01
      0.4225117635D+02  0.1822538213D+00
      0.1167655793D+02  0.4682845944D+00
      0.3593050648D+01  0.4457581734D+00
 S   1 1.00       0.000000000000
      0.4024514736D+00  0.1000000000D+01
 S   1 1.00       0.000000000000
      0.1309018267D+00  0.1000000000D+01
 P   3 1.00       0.000000000000
      0.9468097062D+01  0.5688833201D-01
      0.2010354514D+01  0.3129405934D+00
      0.5477100471D+00  0.7606501651D+00
 P   1 1.00       0.000000000000
      0.1526861379D+00  0.1000000000D+01
 D   1 1.00       0.000000000000
      0.8000000000D+00  0.1000000000D+01
 ****
      4 0
 S   5 1.00       0.000000000000
      0.1238401694D+04  0.5517365048D-02
      0.1862900499D+03  0.4108882856D-01
      0.4225117635D+02  0.1822538213D+00
      0.1167655793D+02  0.4682845944D+00
      0.3593050648D+01  0.4457581734D+00
 S   1 1.00       0.000000000000
      0.4024514736D+00  0.1000000000D+01
 S   1 1.00       0.000000000000
      0.1309018267D+00  0.1000000000D+01
 P   3 1.00       0.000000000000
      0.9468097062D+01  0.5688833201D-01
      0.2010354514D+01  0.3129405934D+00
      0.5477100471D+00  0.7606501651D+00
 P   1 1.00       0.000000000000
      0.1526861379D+00  0.1000000000D+01
 D   1 1.00       0.000000000000
      0.8000000000D+00  0.1000000000D+01
 ****
      5 0
 S   5 1.00       0.000000000000
      0.1238401694D+04  0.5517365048D-02
      0.1862900499D+03  0.4108882856D-01
      0.4225117635D+02  0.1822538213D+00
      0.1167655793D+02  0.4682845944D+00
      0.3593050648D+01  0.4457581734D+00
 S   1 1.00       0.000000000000
      0.4024514736D+00  0.1000000000D+01
 S   1 1.00       0.000000000000
      0.1309018267D+00  0.1000000000D+01
 P   3 1.00       0.000000000000
      0.9468097062D+01  0.5688833201D-01
      0.2010354514D+01  0.3129405934D+00
      0.5477100471D+00  0.7606501651D+00
 P   1 1.00       0.000000000000
      0.1526861379D+00  0.1000000000D+01
 D   1 1.00       0.000000000000
      0.8000000000D+00  0.1000000000D+01
 ****
      6 0
 S   5 1.00       0.000000000000
      0.1238401694D+04  0.5517365048D-02
      0.1862900499D+03  0.4108882856D-01
      0.4225117635D+02  0.1822538213D+00
      0.1167655793D+02  0.4682845944D+00
      0.3593050648D+01  0.4457581734D+00
 S   1 1.00       0.000000000000
      0.4024514736D+00  0.1000000000D+01
 S   1 1.00       0.000000000000
      0.1309018267D+00  0.1000000000D+01
 P   3 1.00       0.000000000000
      0.9468097062D+01  0.5688833201D-01
      0.2010354514D+01  0.3129405934D+00
      0.5477100471D+00  0.7606501651D+00
 P   1 1.00       0.000000000000
      0.1526861379D+00  0.1000000000D+01
 D   1 1.00       0.000000000000
      0.8000000000D+00  0.1000000000D+01
 ****
      7 0
 S   5 1.00       0.000000000000
      0.1238401694D+04  0.5517365048D-02
      0.1862900499D+03  0.4108882856D-01
      0.4225117635D+02  0.1822538213D+00
      0.1167655793D+02  0.4682845944D+00
      0.3593050648D+01  0.4457581734D+00
 S   1 1.00       0.000000000000
      0.4024514736D+00  0.1000000000D+01
 S   1 1.00       0.000000000000
      0.1309018267D+00  0.1000000000D+01
 P   3 1.00       0.000000000000
      0.9468097062D+01  0.5688833201D-01
      0.2010354514D+01  0.3129405934D+00
      0.5477100471D+00  0.7606501651D+00
 P   1 1.00       0.000000000000
      0.1526861379D+00  0.1000000000D+01
 D   1 1.00       0.000000000000
      0.8000000000D+00  0.1000000000D+01
 ****
      8 0
 S   5 1.00       0.000000000000
      0.1238401694D+04  0.5517365048D-02
      0.1862900499D+03  0.4108882856D-01
      0.4225117635D+02  0.1822538213D+00
      0.1167655793D+02  0.4682845944D+00
      0.3593050648D+01  0.4457581734D+00
 S   1 1.00       0.000000000000
      0.4024514736D+00  0.1000000000D+01
 S   1 1.00       0.000000000000
      0.1309018267D+00  0.1000000000D+01
 P   3 1.00       0.000000000000
      0.9468097062D+01  0.5688833201D-01
      0.2010354514D+01  0.3129405934D+00
      0.5477100471D+00  0.7606501651D+00
 P   1 1.00       0.000000000000
      0.1526861379D+00  0.1000000000D+01
 D   1 1.00       0.000000000000
      0.8000000000D+00  0.1000000000D+01
 ****
      9 0
 S   5 1.00       0.000000000000
      0.1238401694D+04  0.5517365048D-02
      0.1862900499D+03  0.4108882856D-01
      0.4225117635D+02  0.1822538213D+00
      0.1167655793D+02  0.4682845944D+00
      0.3593050648D+01  0.4457581734D+00
 S   1 1.00       0.000000000000
      0.4024514736D+00  0.1000000000D+01
 S   1 1.00       0.000000000000
      0.1309018267D+00  0.1000000000D+01
 P   3 1.00       0.000000000000
      0.9468097062D+01  0.5688833201D-01
      0.2010354514D+01  0.3129405934D+00
      0.5477100471D+00  0.7606501651D+00
 P   1 1.00       0.000000000000
      0.1526861379D+00  0.1000000000D+01
 D   1 1.00       0.000000000000
      0.8000000000D+00  0.1000000000D+01
 ****
     10 0
 S   5 1.00       0.000000000000
      0.1238401694D+04  0.5517365048D-02
      0.1862900499D+03  0.4108882856D-01
      0.4225117635D+02  0.1822538213D+00
      0.1167655793D+02  0.4682845944D+00
      0.3593050648D+01  0.4457581734D+00
 S   1 1.00       0.000000000000
      0.4024514736D+00  0.1000000000D+01
 S   1 1.00       0.000000000000
      0.1309018267D+00  0.1000000000D+01
 P   3 1.00       0.000000000000
      0.9468097062D+01  0.5688833201D-01
      0.2010354514D+01  0.3129405934D+00
      0.5477100471D+00  0.7606501651D+00
 P   1 1.00       0.000000000000
      0.1526861379D+00  0.1000000000D+01
 D   1 1.00       0.000000000000
      0.8000000000D+00  0.1000000000D+01
 ****
     11 0
 S   5 1.00       0.000000000000
      0.1238401694D+04  0.5517365048D-02
      0.1862900499D+03  0.4108882856D-01
      0.4225117635D+02  0.1822538213D+00
      0.1167655793D+02  0.4682845944D+00
      0.3593050648D+01  0.4457581734D+00
 S   1 1.00       0.000000000000
      0.4024514736D+00  0.1000000000D+01
 S   1 1.00       0.000000000000
      0.1309018267D+00  0.1000000000D+01
 P   3 1.00       0.000000000000
      0.9468097062D+01  0.5688833201D-01
      0.2010354514D+01  0.3129405934D+00
      0.5477100471D+00  0.7606501651D+00
 P   1 1.00       0.000000000000
      0.1526861379D+00  0.1000000000D+01
 D   1 1.00       0.000000000000
      0.8000000000D+00  0.1000000000D+01
 ****
     12 0
 S   5 1.00       0.000000000000
      0.8393183009D+03 -0.5628883598D-02
      0.1262646484D+03 -0.4183279461D-01
      0.2862060076D+02 -0.1841748813D+00
      0.7879372271D+01 -0.4683965503D+00
      0.2408885717D+01 -0.4445793088D+00
 S   1 1.00       0.000000000000
      0.2510510904D+00  0.1000000000D+01
 S   1 1.00       0.000000000000
      0.8364886607D-01  0.1000000000D+01
 P   3 1.00       0.000000000000
      0.6033222362D+01 -0.5403250032D-01
      0.1249915787D+01 -0.3019403439D+00
      0.3387167635D+00 -0.7717079166D+00
 P   1 1.00       0.000000000000
      0.9641563235D-01  0.1000000000D+01
 D   1 1.00       0.000000000000
      0.5000000000D+00  0.1000000000D+01
 ****
     13 0
 S   5 1.00       0.000000000000
      0.2894832599D+04 -0.5349321176D-02
      0.4354193912D+03 -0.3996773437D-01
      0.9884332887D+02 -0.1794126179D+00
      0.2748519800D+02 -0.4683246869D+00
      0.8540549817D+01 -0.4472416053D+00
 S   1 1.00       0.000000000000
      0.1065457804D+01  0.1000000000D+01
 S   1 1.00       0.000000000000
      0.3324734675D+00  0.1000000000D+01
 P   3 1.00       0.000000000000
      0.2269663392D+02 -0.6478214824D-01
      0.4987233926D+01 -0.3403578536D+00
      0.1349161395D+01 -0.7348581537D+00
 P   1 1.00       0.000000000000
      0.3482988198D+00  0.1000000000D+01
 D   1 1.00       0.000000000000
      0.1400000000D+01  0.1000000000D+01
 ****
     14 0
 S   5 1.00       0.000000000000
      0.2894832599D+04 -0.5349321176D-02
      0.4354193912D+03 -0.3996773437D-01
      0.9884332887D+02 -0.1794126179D+00
      0.2748519800D+02 -0.4683246869D+00
      0.8540549817D+01 -0.4472416053D+00
 S   1 1.00       0.000000000000
      0.1065457804D+01  0.1000000000D+01
 S   1 1.00       0.000000000000
      0.3324734675D+00  0.1000000000D+01
 P   3 1.00       0.000000000000
      0.2269663392D+02 -0.6478214824D-01
      0.4987233926D+01 -0.3403578536D+00
      0.1349161395D+01 -0.7348581537D+00
 P   1 1.00       0.000000000000
      0.3482988198D+00  0.1000000000D+01
 D   1 1.00       0.000000000000
      0.1400000000D+01  0.1000000000D+01
 ****
     15 0
 S   3 1.00       0.000000000000
      0.1301070100D+02  0.3348548481D-01
      0.1962257200D+01  0.2347218709D+00
      0.4445379600D+00  0.8137702853D+00
 S   1 1.00       0.000000000000
      0.1219496200D+00  0.1000000000D+01
 P   1 1.00       0.000000000000
      0.8000000000D+00  0.1000000000D+01
 ****
     16 0
 S   3 1.00       0.000000000000
      0.1301070100D+02  0.3348548481D-01
      0.1962257200D+01  0.2347218709D+00
      0.4445379600D+00  0.8137702853D+00
 S   1 1.00       0.000000000000
      0.1219496200D+00  0.1000000000D+01
 P   1 1.00       0.000000000000
      0.8000000000D+00  0.1000000000D+01
 ****
     17 0
 S   3 1.00       0.000000000000
      0.1301070100D+02  0.3348548481D-01
      0.1962257200D+01  0.2347218709D+00
      0.4445379600D+00  0.8137702853D+00
 S   1 1.00       0.000000000000
      0.1219496200D+00  0.1000000000D+01
 P   1 1.00       0.000000000000
      0.8000000000D+00  0.1000000000D+01
 ****
     18 0
 S   3 1.00       0.000000000000
      0.1301070100D+02  0.3348548481D-01
      0.1962257200D+01  0.2347218709D+00
      0.4445379600D+00  0.8137702853D+00
 S   1 1.00       0.000000000000
      0.1219496200D+00  0.1000000000D+01
 P   1 1.00       0.000000000000
      0.8000000000D+00  0.1000000000D+01
 ****
     19 0
 S   3 1.00       0.000000000000
      0.1301070100D+02  0.3348548481D-01
      0.1962257200D+01  0.2347218709D+00
      0.4445379600D+00  0.8137702853D+00
 S   1 1.00       0.000000000000
      0.1219496200D+00  0.1000000000D+01
 P   1 1.00       0.000000000000
      0.8000000000D+00  0.1000000000D+01
 ****
     20 0
 S   3 1.00       0.000000000000
      0.1301070100D+02  0.3348548481D-01
      0.1962257200D+01  0.2347218709D+00
      0.4445379600D+00  0.8137702853D+00
 S   1 1.00       0.000000000000
      0.1219496200D+00  0.1000000000D+01
 P   1 1.00       0.000000000000
      0.8000000000D+00  0.1000000000D+01
 ****
     21 0
 S   3 1.00       0.000000000000
      0.1301070100D+02  0.3348548481D-01
      0.1962257200D+01  0.2347218709D+00
      0.4445379600D+00  0.8137702853D+00
 S   1 1.00       0.000000000000
      0.1219496200D+00  0.1000000000D+01
 P   1 1.00       0.000000000000
      0.8000000000D+00  0.1000000000D+01
 ****

   231 basis functions,   399 primitive gaussians,   245 cartesian basis functions
    49 alpha electrons       49 beta electrons
       nuclear repulsion energy       864.2580296774 Hartrees.
 IExCor= 4639 DFT=T Ex+Corr=wB97XD ExCW=0 ScaHFX=  1.000000
 ScaDFX=  1.000000  1.000000  1.000000  1.000000 ScalE2=  1.000000  1.000000
 IRadAn=      5 IRanWt=     -1 IRanGd=            0 ICorTp=0 IEmpDi=121
 HFx  wShort=  0.000000 wLong=  0.200000 cFull=  0.222036 cShort=  0.000000 cLong=  0.777964
 DFx  wShort=  0.000000 wLong=  0.200000 cFull=  0.000000 cShort=  0.000000 cLong=  1.000000
 NAtoms=   21 NActive=   21 NUniq=   21 SFac= 1.00D+00 NAtFMM=   60 NAOKFM=F Big=F
 Integral buffers will be    131072 words long.
 Raffenetti 1 integral format.
 Two-electron integral symmetry is turned off.
 Background charge distribution read from rwf.
 PtFMM for NChg=        42 BoxLen=    40.00 Levels= 1 LMax=20 SMax=    18.6 ICnFMM=     1:
 Self energy of the charges =        -0.1686783052 a.u.
 MM   energy of the charges =         0.0000000000 a.u.
 Nuclei-charges interaction =        -1.1677700658 a.u.
 Nuclear repulsion after external point charges =      862.9215813064 Hartrees.
 R6Disp:  Grimme-D2 Dispersion energy=       -0.0135649705 Hartrees.
 Nuclear repulsion after empirical dispersion term =      862.9080163359 Hartrees.
 Leave Link  301 at Tue May  6 19:25:57 2025, MaxMem=  1048576000 cpu:               0.4 elap:               0.1
 (Enter /usr/license/gaussian16_new/rev_c01/avx2/g16/l302.exe)
 NPDir=0 NMtPBC=     1 NCelOv=     1 NCel=       1 NClECP=     1 NCelD=      1
         NCelK=      1 NCelE2=     1 NClLst=     1 CellRange=     0.0.
 One-electron integrals computed using PRISM.
   1 Symmetry operations used in ECPInt.
 ECPInt:  NShTT=    5565 NPrTT=   20909 LenC2=    5389 LenP2D=   15019.
 LDataN:  DoStor=T MaxTD1= 4 Len=   56
 NBasis=   231 RedAO= T EigKep=  6.04D-04  NBF=   231
 NBsUse=   231 1.00D-06 EigRej= -1.00D+00 NBFU=   231
 Precomputing XC quadrature grid using
 IXCGrd= 4 IRadAn=           5 IRanWt=          -1 IRanGd=           0 AccXCQ= 0.00D+00.
 Generated NRdTot=       0 NPtTot=           0 NUsed=           0 NTot=          32
 NSgBfM=   245   245   245   245   245 MxSgAt=    21 MxSgA2=    21.
 Leave Link  302 at Tue May  6 19:25:57 2025, MaxMem=  1048576000 cpu:               1.2 elap:               0.2
 (Enter /usr/license/gaussian16_new/rev_c01/avx2/g16/l303.exe)
 DipDrv:  MaxL=1.
 Leave Link  303 at Tue May  6 19:25:57 2025, MaxMem=  1048576000 cpu:               0.2 elap:               0.0
 (Enter /usr/license/gaussian16_new/rev_c01/avx2/g16/l308.exe)
 Leave Link  308 at Tue May  6 19:25:58 2025, MaxMem=  1048576000 cpu:               0.2 elap:               0.0
 (Enter /usr/license/gaussian16_new/rev_c01/avx2/g16/l401.exe)
 ExpMin= 8.36D-02 ExpMax= 2.89D+03 ExpMxC= 4.35D+02 IAcc=3 IRadAn=         5 AccDes= 0.00D+00
 Harris functional with IExCor= 4639 and IRadAn=       5 diagonalized for initial guess.
 HarFok:  IExCor= 4639 AccDes= 0.00D+00 IRadAn=         5 IDoV= 1 UseB2=F ITyADJ=14
 ICtDFT=  3500011 ScaDFX=  1.000000  1.000000  1.000000  1.000000
 FoFCou: FMM=F IPFlag=           0 FMFlag=      100000 FMFlg1=           0
         NFxFlg=           0 DoJE=T BraDBF=F KetDBF=T FulRan=T
         wScrn=  0.000000 ICntrl=       500 IOpCl=  0 I1Cent=   200000004 NGrid=           0
         NMat0=    1 NMatS0=      1 NMatT0=    0 NMatD0=    1 NMtDS0=    0 NMtDT0=    0
 Symmetry not used in FoFCou.
 Harris En= -653.359839890213    
 JPrj=0 DoOrth=F DoCkMO=F.
 Leave Link  401 at Tue May  6 19:25:59 2025, MaxMem=  1048576000 cpu:               5.1 elap:               0.7
 (Enter /usr/license/gaussian16_new/rev_c01/avx2/g16/l502.exe)
 Two-electron integral symmetry not used.
 Closed shell SCF:
 Using DIIS extrapolation, IDIIS=  1040.
 NGot=  1048576000 LenX=  1048451465 LenY=  1048390999
 Requested convergence on RMS density matrix=1.00D-08 within 128 cycles.
 Requested convergence on MAX density matrix=1.00D-06.
 Requested convergence on             energy=1.00D-06.
 No special actions if energy rises.
 Fock matrices will be formed incrementally for  20 cycles.
 Integral accuracy reduced to 1.0D-05 until final iterations.

 Cycle   1  Pass 0  IDiag  1:
 FoFJK:  IHMeth= 1 ICntrl=       0 DoSepK=T KAlg= 0 I1Cent=           0 FoldK=F
 IRaf=         1 NMat=       1 IRICut=       1 DoRegI=T DoRafI=F ISym2E= 0 IDoP0=0 IntGTp=1.
 FoFCou: FMM=F IPFlag=           0 FMFlag=      100000 FMFlg1=           0
         NFxFlg=           0 DoJE=T BraDBF=F KetDBF=F FulRan=T
         wScrn=  0.000000 ICntrl=       500 IOpCl=  0 I1Cent=           0 NGrid=           0
         NMat0=    1 NMatS0=      1 NMatT0=    0 NMatD0=    1 NMtDS0=    0 NMtDT0=    0
 Symmetry not used in FoFCou.
 E= -680.502978892434    
 DIIS: error= 5.28D-02 at cycle   1 NSaved=   1.
 NSaved= 1 IEnMin= 1 EnMin= -680.502978892434     IErMin= 1 ErrMin= 5.28D-02
 ErrMax= 5.28D-02  0.00D+00 EMaxC= 1.00D-01 BMatC= 4.28D-01 BMatP= 4.28D-01
 IDIUse=3 WtCom= 4.72D-01 WtEn= 5.28D-01
 Coeff-Com:  0.100D+01
 Coeff-En:   0.100D+01
 Coeff:      0.100D+01
 Gap=     0.223 Goal=   None    Shift=    0.000
 GapD=    0.223 DampG=1.000 DampE=0.500 DampFc=0.5000 IDamp=-1.
 Damping current iteration by 5.00D-01
 RMSDP=4.27D-03 MaxDP=1.03D-01              OVMax= 1.71D-01

 Cycle   2  Pass 0  IDiag  1:
 RMSU=  2.10D-03    CP:  9.85D-01
 E= -680.598956039610     Delta-E=       -0.095977147176 Rises=F Damp=T
 DIIS: error= 1.61D-02 at cycle   2 NSaved=   2.
 NSaved= 2 IEnMin= 2 EnMin= -680.598956039610     IErMin= 2 ErrMin= 1.61D-02
 ErrMax= 1.61D-02  0.00D+00 EMaxC= 1.00D-01 BMatC= 5.64D-02 BMatP= 4.28D-01
 IDIUse=3 WtCom= 8.39D-01 WtEn= 1.61D-01
 Coeff-Com: -0.110D+00 0.111D+01
 Coeff-En:   0.404D-01 0.960D+00
 Coeff:     -0.857D-01 0.109D+01
 Gap=     0.245 Goal=   None    Shift=    0.000
 RMSDP=1.64D-03 MaxDP=4.72D-02 DE=-9.60D-02 OVMax= 1.44D-01

 Cycle   3  Pass 0  IDiag  1:
 RMSU=  1.56D-03    CP:  9.70D-01  1.17D+00
 E= -680.701741929274     Delta-E=       -0.102785889664 Rises=F Damp=F
 DIIS: error= 7.41D-03 at cycle   3 NSaved=   3.
 NSaved= 3 IEnMin= 3 EnMin= -680.701741929274     IErMin= 3 ErrMin= 7.41D-03
 ErrMax= 7.41D-03  0.00D+00 EMaxC= 1.00D-01 BMatC= 1.36D-02 BMatP= 5.64D-02
 IDIUse=3 WtCom= 9.26D-01 WtEn= 7.41D-02
 Coeff-Com: -0.147D+00 0.358D+00 0.789D+00
 Coeff-En:   0.000D+00 0.000D+00 0.100D+01
 Coeff:     -0.137D+00 0.332D+00 0.805D+00
 Gap=     0.233 Goal=   None    Shift=    0.000
 RMSDP=6.38D-04 MaxDP=2.21D-02 DE=-1.03D-01 OVMax= 3.94D-02

 Cycle   4  Pass 0  IDiag  1:
 RMSU=  3.55D-04    CP:  9.69D-01  1.39D+00  8.24D-01
 E= -680.711476906512     Delta-E=       -0.009734977238 Rises=F Damp=F
 DIIS: error= 3.53D-03 at cycle   4 NSaved=   4.
 NSaved= 4 IEnMin= 4 EnMin= -680.711476906512     IErMin= 4 ErrMin= 3.53D-03
 ErrMax= 3.53D-03  0.00D+00 EMaxC= 1.00D-01 BMatC= 3.81D-03 BMatP= 1.36D-02
 IDIUse=3 WtCom= 9.65D-01 WtEn= 3.53D-02
 Coeff-Com: -0.693D-01 0.130D+00 0.458D+00 0.481D+00
 Coeff-En:   0.000D+00 0.000D+00 0.161D+00 0.839D+00
 Coeff:     -0.669D-01 0.125D+00 0.448D+00 0.494D+00
 Gap=     0.235 Goal=   None    Shift=    0.000
 RMSDP=2.19D-04 MaxDP=6.07D-03 DE=-9.73D-03 OVMax= 1.15D-02

 Cycle   5  Pass 0  IDiag  1:
 RMSU=  9.08D-05    CP:  9.68D-01  1.37D+00  9.08D-01  6.05D-01
 E= -680.714433696855     Delta-E=       -0.002956790343 Rises=F Damp=F
 DIIS: error= 3.25D-04 at cycle   5 NSaved=   5.
 NSaved= 5 IEnMin= 5 EnMin= -680.714433696855     IErMin= 5 ErrMin= 3.25D-04
 ErrMax= 3.25D-04  0.00D+00 EMaxC= 1.00D-01 BMatC= 2.28D-05 BMatP= 3.81D-03
 IDIUse=3 WtCom= 9.97D-01 WtEn= 3.25D-03
 Coeff-Com:  0.139D-01-0.295D-01-0.444D-01-0.212D-02 0.106D+01
 Coeff-En:   0.000D+00 0.000D+00 0.000D+00 0.000D+00 0.100D+01
 Coeff:      0.139D-01-0.294D-01-0.442D-01-0.212D-02 0.106D+01
 Gap=     0.236 Goal=   None    Shift=    0.000
 RMSDP=4.41D-05 MaxDP=1.14D-03 DE=-2.96D-03 OVMax= 2.95D-03

 Cycle   6  Pass 0  IDiag  1:
 RMSU=  2.60D-05    CP:  9.67D-01  1.37D+00  9.23D-01  6.59D-01  1.18D+00
 E= -680.714469726345     Delta-E=       -0.000036029490 Rises=F Damp=F
 DIIS: error= 1.00D-04 at cycle   6 NSaved=   6.
 NSaved= 6 IEnMin= 6 EnMin= -680.714469726345     IErMin= 6 ErrMin= 1.00D-04
 ErrMax= 1.00D-04  0.00D+00 EMaxC= 1.00D-01 BMatC= 2.83D-06 BMatP= 2.28D-05
 IDIUse=3 WtCom= 9.99D-01 WtEn= 1.00D-03
 Coeff-Com:  0.107D-01-0.211D-01-0.508D-01-0.445D-01 0.329D+00 0.777D+00
 Coeff-En:   0.000D+00 0.000D+00 0.000D+00 0.000D+00 0.000D+00 0.100D+01
 Coeff:      0.107D-01-0.211D-01-0.508D-01-0.445D-01 0.328D+00 0.777D+00
 Gap=     0.236 Goal=   None    Shift=    0.000
 RMSDP=1.36D-05 MaxDP=3.72D-04 DE=-3.60D-05 OVMax= 1.47D-03

 Cycle   7  Pass 0  IDiag  1:
 RMSU=  8.99D-06    CP:  9.67D-01  1.37D+00  9.26D-01  6.65D-01  1.27D+00
                    CP:  1.11D+00
 E= -680.714474885706     Delta-E=       -0.000005159361 Rises=F Damp=F
 DIIS: error= 2.69D-05 at cycle   7 NSaved=   7.
 NSaved= 7 IEnMin= 7 EnMin= -680.714474885706     IErMin= 7 ErrMin= 2.69D-05
 ErrMax= 2.69D-05  0.00D+00 EMaxC= 1.00D-01 BMatC= 4.59D-07 BMatP= 2.83D-06
 IDIUse=1 WtCom= 1.00D+00 WtEn= 0.00D+00
 Coeff-Com:  0.216D-02-0.396D-02-0.118D-01-0.166D-01-0.134D-01 0.273D+00
 Coeff-Com:  0.770D+00
 Coeff:      0.216D-02-0.396D-02-0.118D-01-0.166D-01-0.134D-01 0.273D+00
 Coeff:      0.770D+00
 Gap=     0.236 Goal=   None    Shift=    0.000
 RMSDP=5.66D-06 MaxDP=1.37D-04 DE=-5.16D-06 OVMax= 4.76D-04

 Initial convergence to 1.0D-05 achieved.  Increase integral accuracy.
 Cycle   8  Pass 1  IDiag  1:
 E= -680.714481415263     Delta-E=       -0.000006529557 Rises=F Damp=F
 DIIS: error= 1.31D-04 at cycle   1 NSaved=   1.
 NSaved= 1 IEnMin= 1 EnMin= -680.714481415263     IErMin= 1 ErrMin= 1.31D-04
 ErrMax= 1.31D-04  0.00D+00 EMaxC= 1.00D-01 BMatC= 7.77D-07 BMatP= 7.77D-07
 IDIUse=3 WtCom= 9.99D-01 WtEn= 1.31D-03
 Coeff-Com:  0.100D+01
 Coeff-En:   0.100D+01
 Coeff:      0.100D+01
 Gap=     0.236 Goal=   None    Shift=    0.000
 RMSDP=5.66D-06 MaxDP=1.37D-04 DE=-6.53D-06 OVMax= 3.24D-04

 Cycle   9  Pass 1  IDiag  1:
 RMSU=  6.99D-05    CP:  1.00D+00
 E= -680.714482365727     Delta-E=       -0.000000950465 Rises=F Damp=F
 DIIS: error= 1.02D-05 at cycle   2 NSaved=   2.
 NSaved= 2 IEnMin= 2 EnMin= -680.714482365727     IErMin= 2 ErrMin= 1.02D-05
 ErrMax= 1.02D-05  0.00D+00 EMaxC= 1.00D-01 BMatC= 4.51D-08 BMatP= 7.77D-07
 IDIUse=1 WtCom= 1.00D+00 WtEn= 0.00D+00
 Coeff-Com:  0.156D-01 0.984D+00
 Coeff:      0.156D-01 0.984D+00
 Gap=     0.236 Goal=   None    Shift=    0.000
 RMSDP=5.41D-06 MaxDP=1.22D-04 DE=-9.50D-07 OVMax= 1.73D-04

 Cycle  10  Pass 1  IDiag  1:
 RMSU=  2.39D-06    CP:  1.00D+00  1.07D+00
 E= -680.714482403257     Delta-E=       -0.000000037529 Rises=F Damp=F
 DIIS: error= 1.89D-05 at cycle   3 NSaved=   3.
 NSaved= 3 IEnMin= 3 EnMin= -680.714482403257     IErMin= 2 ErrMin= 1.02D-05
 ErrMax= 1.89D-05  0.00D+00 EMaxC= 1.00D-01 BMatC= 5.47D-08 BMatP= 4.51D-08
 IDIUse=1 WtCom= 1.00D+00 WtEn= 0.00D+00
 Coeff-Com: -0.472D-01 0.549D+00 0.498D+00
 Coeff:     -0.472D-01 0.549D+00 0.498D+00
 Gap=     0.236 Goal=   None    Shift=    0.000
 RMSDP=1.13D-06 MaxDP=2.89D-05 DE=-3.75D-08 OVMax= 7.41D-05

 Cycle  11  Pass 1  IDiag  1:
 RMSU=  8.37D-07    CP:  1.00D+00  1.08D+00  7.64D-01
 E= -680.714482462640     Delta-E=       -0.000000059383 Rises=F Damp=F
 DIIS: error= 3.34D-06 at cycle   4 NSaved=   4.
 NSaved= 4 IEnMin= 4 EnMin= -680.714482462640     IErMin= 4 ErrMin= 3.34D-06
 ErrMax= 3.34D-06  0.00D+00 EMaxC= 1.00D-01 BMatC= 1.04D-09 BMatP= 4.51D-08
 IDIUse=1 WtCom= 1.00D+00 WtEn= 0.00D+00
 Coeff-Com:  0.467D-02-0.149D+00-0.683D-01 0.121D+01
 Coeff:      0.467D-02-0.149D+00-0.683D-01 0.121D+01
 Gap=     0.236 Goal=   None    Shift=    0.000
 RMSDP=5.80D-07 MaxDP=7.84D-06 DE=-5.94D-08 OVMax= 6.39D-05

 Cycle  12  Pass 1  IDiag  1:
 RMSU=  2.87D-07    CP:  1.00D+00  1.08D+00  9.07D-01  1.43D+00
 E= -680.714482469949     Delta-E=       -0.000000007309 Rises=F Damp=F
 DIIS: error= 1.48D-06 at cycle   5 NSaved=   5.
 NSaved= 5 IEnMin= 5 EnMin= -680.714482469949     IErMin= 5 ErrMin= 1.48D-06
 ErrMax= 1.48D-06  0.00D+00 EMaxC= 1.00D-01 BMatC= 8.39D-10 BMatP= 1.04D-09
 IDIUse=1 WtCom= 1.00D+00 WtEn= 0.00D+00
 Coeff-Com:  0.130D-01-0.210D+00-0.153D+00 0.688D+00 0.662D+00
 Coeff:      0.130D-01-0.210D+00-0.153D+00 0.688D+00 0.662D+00
 Gap=     0.236 Goal=   None    Shift=    0.000
 RMSDP=2.72D-07 MaxDP=5.03D-06 DE=-7.31D-09 OVMax= 2.38D-05

 Cycle  13  Pass 1  IDiag  1:
 RMSU=  1.58D-07    CP:  1.00D+00  1.08D+00  9.57D-01  1.65D+00  1.16D+00
 E= -680.714482471586     Delta-E=       -0.000000001637 Rises=F Damp=F
 DIIS: error= 4.66D-07 at cycle   6 NSaved=   6.
 NSaved= 6 IEnMin= 6 EnMin= -680.714482471586     IErMin= 6 ErrMin= 4.66D-07
 ErrMax= 4.66D-07  0.00D+00 EMaxC= 1.00D-01 BMatC= 4.06D-11 BMatP= 8.39D-10
 IDIUse=1 WtCom= 1.00D+00 WtEn= 0.00D+00
 Coeff-Com:  0.318D-02-0.353D-01-0.338D-01-0.636D-02 0.175D+00 0.897D+00
 Coeff:      0.318D-02-0.353D-01-0.338D-01-0.636D-02 0.175D+00 0.897D+00
 Gap=     0.236 Goal=   None    Shift=    0.000
 RMSDP=9.67D-08 MaxDP=1.44D-06 DE=-1.64D-09 OVMax= 1.05D-05

 Cycle  14  Pass 1  IDiag  1:
 RMSU=  3.42D-08    CP:  1.00D+00  1.08D+00  9.70D-01  1.71D+00  1.35D+00
                    CP:  1.20D+00
 E= -680.714482471741     Delta-E=       -0.000000000156 Rises=F Damp=F
 DIIS: error= 1.80D-07 at cycle   7 NSaved=   7.
 NSaved= 7 IEnMin= 7 EnMin= -680.714482471741     IErMin= 7 ErrMin= 1.80D-07
 ErrMax= 1.80D-07  0.00D+00 EMaxC= 1.00D-01 BMatC= 6.44D-12 BMatP= 4.06D-11
 IDIUse=1 WtCom= 1.00D+00 WtEn= 0.00D+00
 Coeff-Com: -0.552D-03 0.134D-01 0.734D-02-0.740D-01-0.179D-01 0.267D+00
 Coeff-Com:  0.804D+00
 Coeff:     -0.552D-03 0.134D-01 0.734D-02-0.740D-01-0.179D-01 0.267D+00
 Coeff:      0.804D+00
 Gap=     0.236 Goal=   None    Shift=    0.000
 RMSDP=2.59D-08 MaxDP=5.02D-07 DE=-1.56D-10 OVMax= 2.69D-06

 Cycle  15  Pass 1  IDiag  1:
 RMSU=  1.68D-08    CP:  1.00D+00  1.08D+00  9.71D-01  1.72D+00  1.40D+00
                    CP:  1.27D+00  1.10D+00
 E= -680.714482471758     Delta-E=       -0.000000000017 Rises=F Damp=F
 DIIS: error= 6.54D-08 at cycle   8 NSaved=   8.
 NSaved= 8 IEnMin= 8 EnMin= -680.714482471758     IErMin= 8 ErrMin= 6.54D-08
 ErrMax= 6.54D-08  0.00D+00 EMaxC= 1.00D-01 BMatC= 1.30D-12 BMatP= 6.44D-12
 IDIUse=1 WtCom= 1.00D+00 WtEn= 0.00D+00
 Coeff-Com: -0.662D-03 0.970D-02 0.701D-02-0.281D-01-0.299D-01-0.588D-01
 Coeff-Com:  0.253D+00 0.848D+00
 Coeff:     -0.662D-03 0.970D-02 0.701D-02-0.281D-01-0.299D-01-0.588D-01
 Coeff:      0.253D+00 0.848D+00
 Gap=     0.236 Goal=   None    Shift=    0.000
 RMSDP=1.39D-08 MaxDP=1.85D-07 DE=-1.66D-11 OVMax= 1.52D-06

 Cycle  16  Pass 1  IDiag  1:
 RMSU=  6.81D-09    CP:  1.00D+00  1.08D+00  9.72D-01  1.72D+00  1.42D+00
                    CP:  1.30D+00  1.30D+00  1.27D+00
 E= -680.714482471756     Delta-E=        0.000000000002 Rises=F Damp=F
 DIIS: error= 3.54D-08 at cycle   9 NSaved=   9.
 NSaved= 9 IEnMin= 8 EnMin= -680.714482471758     IErMin= 9 ErrMin= 3.54D-08
 ErrMax= 3.54D-08  0.00D+00 EMaxC= 1.00D-01 BMatC= 1.69D-13 BMatP= 1.30D-12
 IDIUse=1 WtCom= 1.00D+00 WtEn= 0.00D+00
 Coeff-Com:  0.397D-04-0.139D-02-0.795D-03 0.102D-01 0.638D-02-0.569D-01
 Coeff-Com: -0.114D+00 0.994D-01 0.106D+01
 Coeff:      0.397D-04-0.139D-02-0.795D-03 0.102D-01 0.638D-02-0.569D-01
 Coeff:     -0.114D+00 0.994D-01 0.106D+01
 Gap=     0.236 Goal=   None    Shift=    0.000
 RMSDP=6.49D-09 MaxDP=9.49D-08 DE= 2.27D-12 OVMax= 7.74D-07

 SCF Done:  E(RwB97XD) =  -680.714482472     A.U. after   16 cycles
            NFock= 16  Conv=0.65D-08     -V/T= 2.0071
 KE= 6.759028970707D+02 PE=-3.319515023921D+03 EE= 1.099989628043D+03
 Leave Link  502 at Tue May  6 19:26:21 2025, MaxMem=  1048576000 cpu:             178.3 elap:              22.5
 (Enter /usr/license/gaussian16_new/rev_c01/avx2/g16/l801.exe)
 DoSCS=F DFT=T ScalE2(SS,OS)=  1.000000  1.000000
 ExpMin= 8.36D-02 ExpMax= 2.89D+03 ExpMxC= 4.35D+02 IAcc=3 IRadAn=         5 AccDes= 0.00D+00
 HarFok:  IExCor=  205 AccDes= 0.00D+00 IRadAn=         5 IDoV=-2 UseB2=F ITyADJ=14
 ICtDFT= 12500011 ScaDFX=  1.000000  1.000000  1.000000  1.000000
 Largest valence mixing into a core orbital is  1.10D-04
 Largest core mixing into a valence orbital is  5.03D-05
 Range of M.O.s used for correlation:    15   231
 NBasis=   231 NAE=    49 NBE=    49 NFC=    14 NFV=     0
 NROrb=    217 NOA=    35 NOB=    35 NVA=   182 NVB=   182

 **** Warning!!: The largest alpha MO coefficient is  0.10549478D+02

 Leave Link  801 at Tue May  6 19:26:22 2025, MaxMem=  1048576000 cpu:               0.9 elap:               0.2
 (Enter /usr/license/gaussian16_new/rev_c01/avx2/g16/l914.exe)
 RHF ground state
 Two-electron integral symmetry not used.
 MDV=  1048576000 DFT=T DoStab=F Mixed=T DoRPA=F DoScal=F NonHer=F
 Making orbital integer symmetry assigments:
     4 initial guesses have been made.
 Convergence on wavefunction:    0.000001000000000
 Davidson Disk Diagonalization:  ConvIn= 1.00D-06 SkipCon=T Conv= 1.00D-06.
 Max sub-space:  2000 roots to seek:     4 dimension of matrix:        12740
 Iteration     1 Dimension     4 NMult     0 NNew      4
 CISAX will form     4 AO SS matrices at one time.
 NMat=     4 NSing=     0 JSym2X= 0.
 FoFJK:  IHMeth= 1 ICntrl=       0 DoSepK=T KAlg= 0 I1Cent=           0 FoldK=F
 IRaf=         1 NMat=       8 IRICut=       1 DoRegI=T DoRafI=F ISym2E= 0 IDoP0=0 IntGTp=1.
 FoFCou: FMM=F IPFlag=           0 FMFlag=      100000 FMFlg1=           0
         NFxFlg=           0 DoJE=F BraDBF=F KetDBF=F FulRan=T
         wScrn=  0.000000 ICntrl=         0 IOpCl=  0 I1Cent=           0 NGrid=           0
         NMat0=    8 NMatS0=      0 NMatT0=    4 NMatD0=    8 NMtDS0=    0 NMtDT0=    0
         CW=    0.222036    0.777964
         WU=    0.000000   12.500000
 Symmetry not used in FoFCou.
 Excitation Energies [eV] at current iteration:
 Root      1 :     1.750116231449116
 Root      2 :     3.319920340188556
 Root      3 :     3.701851300133539
 Root      4 :     4.206094450457394
 Iteration     2 Dimension     8 NMult     4 NNew      4
 CISAX will form     4 AO SS matrices at one time.
 NMat=     4 NSing=     0 JSym2X= 0.
 Root      1 not converged, maximum delta is    0.055341820322182
 Excitation Energies [eV] at current iteration:
 Root      1 :     1.642349148466819   Change is   -0.107767082982296
 Root      2 :     3.040537064923729   Change is   -0.279383275264827
 Root      3 :     3.380327950656383   Change is   -0.321523349477156
 Root      4 :     3.868835476267011   Change is   -0.337258974190383
 Iteration     3 Dimension     9 NMult     8 NNew      1
 CISAX will form     1 AO SS matrices at one time.
 NMat=     1 NSing=     0 JSym2X= 0.
 Root      1 not converged, maximum delta is    0.006791441532088
 Excitation Energies [eV] at current iteration:
 Root      1 :     1.639433959100487   Change is   -0.002915189366332
 Iteration     4 Dimension    10 NMult     9 NNew      1
 CISAX will form     1 AO SS matrices at one time.
 NMat=     1 NSing=     0 JSym2X= 0.
 Root      1 not converged, maximum delta is    0.003504482141493
 Excitation Energies [eV] at current iteration:
 Root      1 :     1.639167112131757   Change is   -0.000266846968730
 Iteration     5 Dimension    11 NMult    10 NNew      1
 CISAX will form     1 AO SS matrices at one time.
 NMat=     1 NSing=     0 JSym2X= 0.
 Root      1 not converged, maximum delta is    0.000356286027113
 Excitation Energies [eV] at current iteration:
 Root      1 :     1.639157961478326   Change is   -0.000009150653430
 Iteration     6 Dimension    12 NMult    11 NNew      1
 CISAX will form     1 AO SS matrices at one time.
 NMat=     1 NSing=     0 JSym2X= 0.
 Root      1 not converged, maximum delta is    0.000050628420003
 Excitation Energies [eV] at current iteration:
 Root      1 :     1.639157753491843   Change is   -0.000000207986483
 Iteration     7 Dimension    13 NMult    12 NNew      1
 CISAX will form     1 AO SS matrices at one time.
 NMat=     1 NSing=     0 JSym2X= 0.
 Root      1 not converged, maximum delta is    0.000006730951730
 Excitation Energies [eV] at current iteration:
 Root      1 :     1.639157748290623   Change is   -0.000000005201220
 Iteration     8 Dimension    14 NMult    13 NNew      1
 CISAX will form     1 AO SS matrices at one time.
 NMat=     1 NSing=     0 JSym2X= 0.
 Root      1 not converged, maximum delta is    0.000001272885292
 Excitation Energies [eV] at current iteration:
 Root      1 :     1.639157748093788   Change is   -0.000000000196835
 Iteration     9 Dimension    15 NMult    14 NNew      1
 CISAX will form     1 AO SS matrices at one time.
 NMat=     1 NSing=     0 JSym2X= 0.
 Root      1 has converged.
 Excitation Energies [eV] at current iteration:
 Root      1 :     1.639157748079040   Change is   -0.000000000014749
 Convergence achieved on expansion vectors.
 ***********************************************************************
 Excited states from <AA,BB:AA,BB> singles matrix:
 ***********************************************************************
 
 1PDM for each excited state written to RWF  633
 Ground to excited state transition densities written to RWF  633
 Ground to excited state transition electric dipole moments (Au):
       state          X           Y           Z        Dip. S.      Osc.
         1        -0.0000     -0.0000     -0.0000      0.0000      0.0000
 Ground to excited state transition velocity dipole moments (Au):
       state          X           Y           Z        Dip. S.      Osc.
         1         0.0000      0.0000      0.0000      0.0000      0.0000
 Ground to excited state transition magnetic dipole moments (Au):
       state          X           Y           Z
         1         0.0000      0.0000      0.0000
 Ground to excited state transition velocity quadrupole moments (Au):
       state          XX          YY          ZZ          XY          XZ          YZ
         1         0.0000      0.0000      0.0000      0.0000      0.0000      0.0000
 <0|del|b> * <b|rxdel|0> + <0|del|b> * <b|delr+rdel|0>
 Rotatory Strengths (R) in cgs (10**-40 erg-esu-cm/Gauss)
       state          XX          YY          ZZ    R(velocity)    E-M Angle
         1         0.0000      0.0000      0.0000      0.0000       90.00
 1/2[<0|r|b>*<b|rxdel|0> + (<0|rxdel|b>*<b|r|0>)*]
 Rotatory Strengths (R) in cgs (10**-40 erg-esu-cm/Gauss)
       state          XX          YY          ZZ     R(length)
         1         0.0000      0.0000      0.0000      0.0000
  1/2[<0|del|b>*<b|r|0> + (<0|r|b>*<b|del|0>)*] (Au)
       state          X           Y           Z        Dip. S.   Osc.(frdel)
         1        -0.0000     -0.0000     -0.0000      0.0000      0.0000

 Excitation energies and oscillator strengths:
 
 Excited state symmetry could not be determined.
 Excited State   1:      Triplet-?Sym    1.6392 eV  756.39 nm  f=0.0000  <S**2>=2.000
      49 -> 50         0.69915
 This state for optimization and/or second-order correction.
 Total Energy, E(CIS/TDA) =  -680.654244533    
 Copying the excited state density for this state as the 1-particle RhoCI density.
 SavETr:  write IOETrn=   770 NScale= 10 NData=  16 NLR=1 NState=    1 LETran=      28.
 The selected state is a triplet.
 CISGrd: IGrad=1 NXY=1 DFT=T
 CISAX will form     1 AO SS matrices at one time.
 NMat=     1 NSing=     0 JSym2X= 0.
 Leave Link  914 at Tue May  6 19:27:03 2025, MaxMem=  1048576000 cpu:             331.1 elap:              41.7
 (Enter /usr/license/gaussian16_new/rev_c01/avx2/g16/l1002.exe)
 Minotr:  Closed shell wavefunction.
          Computing CIS/TDA/TD derivatives.
          Using Z-Vector for PSCF gradient.
          Skipping F1 and S1 gradient terms here.
          Frozen-core window.
          Direct CPHF calculation.
          Differentiating once with respect to electric field.
                with respect to dipole field.
          Electric field/nuclear overlap derivatives assumed to be zero.
          Requested convergence is 1.0D-10 RMS, and 1.0D-09 maximum.
          NewPWx=F KeepS1=T KeepF1=T KeepIn=T MapXYZ=F SortEE=F KeepMc=T.
 Two-electron integral symmetry not used.
          MDV=    1048576000 using IRadAn=       5.
          Solving linear equations separately, MaxMat=     384.
          There are     1 degrees of freedom in the 1st order CPHF.  IDoFFX=0 NUNeed=     1.
 FoFJK:  IHMeth= 1 ICntrl=       0 DoSepK=T KAlg= 0 I1Cent=           0 FoldK=F
 IRaf=         1 NMat=       1 IRICut=       1 DoRegI=T DoRafI=F ISym2E= 0 IDoP0=0 IntGTp=1.
 FoFCou: FMM=F IPFlag=           0 FMFlag=      100000 FMFlg1=           0
         NFxFlg=           0 DoJE=T BraDBF=F KetDBF=F FulRan=T
         wScrn=  0.000000 ICntrl=       500 IOpCl=  0 I1Cent=           0 NGrid=           0
         NMat0=    1 NMatS0=      1 NMatT0=    0 NMatD0=    1 NMtDS0=    0 NMtDT0=    0
 Symmetry not used in FoFCou.
 LinEq1:  Iter=  0 NonCon=     1 RMS=3.49D-03 Max=1.04D-01 NDo=     1
 AX will form     1 AO Fock derivatives at one time.
 LinEq1:  Iter=  1 NonCon=     1 RMS=1.81D-03 Max=1.36D-01 NDo=     1
 LinEq1:  Iter=  2 NonCon=     1 RMS=8.53D-04 Max=5.04D-02 NDo=     1
 LinEq1:  Iter=  3 NonCon=     1 RMS=2.17D-04 Max=5.77D-03 NDo=     1
 LinEq1:  Iter=  4 NonCon=     1 RMS=1.15D-04 Max=2.88D-03 NDo=     1
 LinEq1:  Iter=  5 NonCon=     1 RMS=5.72D-05 Max=1.77D-03 NDo=     1
 LinEq1:  Iter=  6 NonCon=     1 RMS=2.26D-05 Max=5.79D-04 NDo=     1
 LinEq1:  Iter=  7 NonCon=     1 RMS=1.12D-05 Max=5.44D-04 NDo=     1
 LinEq1:  Iter=  8 NonCon=     1 RMS=4.98D-06 Max=1.74D-04 NDo=     1
 LinEq1:  Iter=  9 NonCon=     1 RMS=1.66D-06 Max=5.01D-05 NDo=     1
 LinEq1:  Iter= 10 NonCon=     1 RMS=6.50D-07 Max=1.58D-05 NDo=     1
 LinEq1:  Iter= 11 NonCon=     1 RMS=3.43D-07 Max=7.08D-06 NDo=     1
 LinEq1:  Iter= 12 NonCon=     1 RMS=1.15D-07 Max=2.28D-06 NDo=     1
 LinEq1:  Iter= 13 NonCon=     1 RMS=6.70D-08 Max=2.42D-06 NDo=     1
 LinEq1:  Iter= 14 NonCon=     1 RMS=2.68D-08 Max=5.45D-07 NDo=     1
 LinEq1:  Iter= 15 NonCon=     1 RMS=1.18D-08 Max=3.86D-07 NDo=     1
 LinEq1:  Iter= 16 NonCon=     1 RMS=6.52D-09 Max=1.89D-07 NDo=     1
 LinEq1:  Iter= 17 NonCon=     1 RMS=2.23D-09 Max=4.59D-08 NDo=     1
 LinEq1:  Iter= 18 NonCon=     1 RMS=9.57D-10 Max=3.00D-08 NDo=     1
 LinEq1:  Iter= 19 NonCon=     1 RMS=4.38D-10 Max=8.79D-09 NDo=     1
 LinEq1:  Iter= 20 NonCon=     1 RMS=1.37D-10 Max=4.84D-09 NDo=     1
 LinEq1:  Iter= 21 NonCon=     1 RMS=4.03D-11 Max=1.45D-09 NDo=     1
 LinEq1:  Iter= 22 NonCon=     0 RMS=1.61D-11 Max=5.28D-10 NDo=     1
 Linear equations converged to 1.000D-10 1.000D-09 after    22 iterations.
 End of Minotr F.D. properties file   721 does not exist.
 End of Minotr F.D. properties file   722 does not exist.
 End of Minotr F.D. properties file   788 does not exist.
 Leave Link 1002 at Tue May  6 19:27:58 2025, MaxMem=  1048576000 cpu:             434.6 elap:              54.7
 (Enter /usr/license/gaussian16_new/rev_c01/avx2/g16/l601.exe)
 Copying SCF densities to generalized density rwf, IOpCl= 0 IROHF=0.

 **********************************************************************

            Population analysis using the CI Density.

 **********************************************************************

 Alpha  occ. eigenvalues --  -24.73648 -24.73425 -14.47987 -14.47117 -10.34078
 Alpha  occ. eigenvalues --  -10.33765 -10.33516 -10.33249 -10.33122 -10.31008
 Alpha  occ. eigenvalues --  -10.29841 -10.29168 -10.28298  -6.92311  -1.22280
 Alpha  occ. eigenvalues --   -1.18760  -1.08485  -1.06669  -0.91687  -0.89182
 Alpha  occ. eigenvalues --   -0.87632  -0.82980  -0.77966  -0.71170  -0.69225
 Alpha  occ. eigenvalues --   -0.68697  -0.67726  -0.64827  -0.62983  -0.58242
 Alpha  occ. eigenvalues --   -0.55348  -0.55099  -0.54112  -0.53384  -0.52500
 Alpha  occ. eigenvalues --   -0.50904  -0.50494  -0.49787  -0.49196  -0.48801
 Alpha  occ. eigenvalues --   -0.47531  -0.43920  -0.43690  -0.41864  -0.41478
 Alpha  occ. eigenvalues --   -0.38468  -0.34947  -0.33514  -0.28401
 Alpha virt. eigenvalues --   -0.04837   0.09737   0.11728   0.14188   0.16995
 Alpha virt. eigenvalues --    0.18645   0.19669   0.19851   0.22094   0.22336
 Alpha virt. eigenvalues --    0.23638   0.25602   0.25893   0.26518   0.27168
 Alpha virt. eigenvalues --    0.30111   0.31333   0.31349   0.32500   0.34547
 Alpha virt. eigenvalues --    0.37542   0.38030   0.41213   0.41814   0.43225
 Alpha virt. eigenvalues --    0.46154   0.47109   0.48145   0.50191   0.50660
 Alpha virt. eigenvalues --    0.51550   0.51682   0.52154   0.52865   0.53259
 Alpha virt. eigenvalues --    0.55362   0.56330   0.57175   0.57333   0.60273
 Alpha virt. eigenvalues --    0.60412   0.61390   0.62256   0.62885   0.66772
 Alpha virt. eigenvalues --    0.67117   0.68944   0.69785   0.74325   0.76056
 Alpha virt. eigenvalues --    0.76902   0.77817   0.78186   0.79067   0.80123
 Alpha virt. eigenvalues --    0.80570   0.81685   0.82901   0.83063   0.83943
 Alpha virt. eigenvalues --    0.86131   0.86390   0.87587   0.90210   0.91579
 Alpha virt. eigenvalues --    0.97943   0.98030   0.98736   1.04235   1.06683
 Alpha virt. eigenvalues --    1.07960   1.11157   1.13833   1.17025   1.17936
 Alpha virt. eigenvalues --    1.22916   1.24689   1.24785   1.26477   1.28313
 Alpha virt. eigenvalues --    1.28565   1.29668   1.32855   1.33497   1.34369
 Alpha virt. eigenvalues --    1.36634   1.36873   1.39071   1.41547   1.42142
 Alpha virt. eigenvalues --    1.45182   1.45762   1.47625   1.49439   1.50354
 Alpha virt. eigenvalues --    1.57871   1.60238   1.63200   1.64156   1.66102
 Alpha virt. eigenvalues --    1.71232   1.72753   1.74239   1.75783   1.76426
 Alpha virt. eigenvalues --    1.77632   1.78012   1.81450   1.82002   1.82267
 Alpha virt. eigenvalues --    1.84977   1.87014   1.89058   1.90671   1.94088
 Alpha virt. eigenvalues --    1.94910   1.97102   1.97800   2.00481   2.02805
 Alpha virt. eigenvalues --    2.04850   2.07561   2.08055   2.09067   2.10728
 Alpha virt. eigenvalues --    2.11371   2.13090   2.15254   2.17164   2.18929
 Alpha virt. eigenvalues --    2.23210   2.24586   2.25397   2.30302   2.30737
 Alpha virt. eigenvalues --    2.35251   2.37550   2.38060   2.39311   2.41726
 Alpha virt. eigenvalues --    2.43851   2.45020   2.46762   2.52967   2.58339
 Alpha virt. eigenvalues --    2.66340   2.68093   2.70034   2.71567   2.75344
 Alpha virt. eigenvalues --    2.76947   2.79905   2.81216   2.82756   2.83365
 Alpha virt. eigenvalues --    2.87359   2.89858   3.02047   3.02721   3.09020
 Alpha virt. eigenvalues --    3.11726   3.14752   3.15557   3.18043   3.21976
 Alpha virt. eigenvalues --    3.22230   3.22558   3.26078   3.26939   3.29076
 Alpha virt. eigenvalues --    3.40189   3.42609   3.48216   3.52131   3.57251
 Alpha virt. eigenvalues --    3.63423   3.66324   3.75818   3.84337   3.87146
 Alpha virt. eigenvalues --    3.87187   3.92479
          Condensed to atoms (all electrons):
               1          2          3          4          5          6
     1  N    6.455042  -0.038866   0.409153  -0.053059  -0.098914   0.420804
     2  N   -0.038866   6.436416  -0.000068   0.000018  -0.000619  -0.009975
     3  C    0.409153  -0.000068   4.778982   0.303999   0.023504  -0.141137
     4  C   -0.053059   0.000018   0.303999   5.011082   0.319134   0.030104
     5  C   -0.098914  -0.000619   0.023504   0.319134   5.091980   0.290550
     6  C    0.420804  -0.009975  -0.141137   0.030104   0.290550   5.043153
     7  C   -0.067895  -0.062213   0.009407   0.021112  -0.119929   0.299965
     8  C   -0.015183   0.420428   0.000995  -0.001667   0.017407   0.042169
     9  C   -0.000625  -0.101122   0.000032  -0.000002   0.000076   0.013659
    10  C    0.000026  -0.048645  -0.000002  -0.000000  -0.000001  -0.001245
    11  C   -0.000114   0.419400   0.000053  -0.000002   0.000030   0.000700
    12  B    0.287300   0.280884  -0.013284   0.000034   0.000821  -0.048070
    13  F   -0.035799  -0.034971  -0.001812  -0.000165  -0.000034  -0.002797
    14  F   -0.033472  -0.033323   0.001781   0.000251  -0.000087  -0.002651
    15  H    0.008015   0.006804  -0.000751   0.000982  -0.027591  -0.027099
    16  H    0.000222  -0.035349   0.000003  -0.000000  -0.000001   0.000063
    17  H    0.005536  -0.000013   0.015406  -0.075354   0.494945  -0.051775
    18  H    0.005828   0.000003  -0.075951   0.485013  -0.070680   0.017305
    19  H    0.000003   0.006077   0.000000   0.000000  -0.000000   0.000008
    20  H   -0.032661   0.000199   0.455765  -0.074614   0.013537   0.003063
    21  H   -0.000013   0.006797  -0.000000   0.000000   0.000002  -0.000011
               7          8          9         10         11         12
     1  N   -0.067895  -0.015183  -0.000625   0.000026  -0.000114   0.287300
     2  N   -0.062213   0.420428  -0.101122  -0.048645   0.419400   0.280884
     3  C    0.009407   0.000995   0.000032  -0.000002   0.000053  -0.013284
     4  C    0.021112  -0.001667  -0.000002  -0.000000  -0.000002   0.000034
     5  C   -0.119929   0.017407   0.000076  -0.000001   0.000030   0.000821
     6  C    0.299965   0.042169   0.013659  -0.001245   0.000700  -0.048070
     7  C    5.295737   0.245757  -0.130495   0.022503   0.007444  -0.006033
     8  C    0.245757   5.065127   0.342829   0.024302  -0.134740  -0.048418
     9  C   -0.130495   0.342829   5.165185   0.300200   0.009731   0.001271
    10  C    0.022503   0.024302   0.300200   4.980658   0.339265  -0.000230
    11  C    0.007444  -0.134740   0.009731   0.339265   4.661086  -0.013254
    12  B   -0.006033  -0.048418   0.001271  -0.000230  -0.013254   3.399899
    13  F    0.001299  -0.002689  -0.000005  -0.000240  -0.001244   0.473331
    14  F    0.001400  -0.002531  -0.000098   0.000248   0.001368   0.451211
    15  H    0.465958  -0.073655  -0.021322   0.000571  -0.000519   0.002700
    16  H   -0.000964   0.000139   0.020747  -0.086959   0.461047  -0.000432
    17  H   -0.015143  -0.000011   0.000001   0.000000  -0.000000   0.000361
    18  H   -0.000617   0.000006  -0.000000   0.000000   0.000000   0.000245
    19  H   -0.000547   0.016268  -0.082274   0.489139  -0.065960   0.000257
    20  H   -0.000608   0.000033  -0.000001   0.000000   0.000003  -0.000044
    21  H   -0.017707  -0.042592   0.462899  -0.075218   0.012791   0.000361
              13         14         15         16         17         18
     1  N   -0.035799  -0.033472   0.008015   0.000222   0.005536   0.005828
     2  N   -0.034971  -0.033323   0.006804  -0.035349  -0.000013   0.000003
     3  C   -0.001812   0.001781  -0.000751   0.000003   0.015406  -0.075951
     4  C   -0.000165   0.000251   0.000982  -0.000000  -0.075354   0.485013
     5  C   -0.000034  -0.000087  -0.027591  -0.000001   0.494945  -0.070680
     6  C   -0.002797  -0.002651  -0.027099   0.000063  -0.051775   0.017305
     7  C    0.001299   0.001400   0.465958  -0.000964  -0.015143  -0.000617
     8  C   -0.002689  -0.002531  -0.073655   0.000139  -0.000011   0.000006
     9  C   -0.000005  -0.000098  -0.021322   0.020747   0.000001  -0.000000
    10  C   -0.000240   0.000248   0.000571  -0.086959   0.000000   0.000000
    11  C   -0.001244   0.001368  -0.000519   0.461047  -0.000000   0.000000
    12  B    0.473331   0.451211   0.002700  -0.000432   0.000361   0.000245
    13  F    8.853715  -0.026467   0.000000  -0.000100   0.000001   0.000002
    14  F   -0.026467   8.874955   0.000005   0.001758   0.000001   0.000001
    15  H    0.000000   0.000005   0.766244   0.000011   0.001693   0.000023
    16  H   -0.000100   0.001758   0.000011   0.742527  -0.000000  -0.000000
    17  H    0.000001   0.000001   0.001693  -0.000000   0.661081  -0.009763
    18  H    0.000002   0.000001   0.000023  -0.000000  -0.009763   0.707059
    19  H    0.000001   0.000001   0.000006  -0.009768  -0.000000  -0.000000
    20  H    0.000472   0.000822   0.000013   0.000001  -0.000249  -0.006148
    21  H    0.000001   0.000001   0.002806  -0.000336  -0.000001  -0.000000
              19         20         21
     1  N    0.000003  -0.032661  -0.000013
     2  N    0.006077   0.000199   0.006797
     3  C    0.000000   0.455765  -0.000000
     4  C    0.000000  -0.074614   0.000000
     5  C   -0.000000   0.013537   0.000002
     6  C    0.000008   0.003063  -0.000011
     7  C   -0.000547  -0.000608  -0.017707
     8  C    0.016268   0.000033  -0.042592
     9  C   -0.082274  -0.000001   0.462899
    10  C    0.489139   0.000000  -0.075218
    11  C   -0.065960   0.000003   0.012791
    12  B    0.000257  -0.000044   0.000361
    13  F    0.000001   0.000472   0.000001
    14  F    0.000001   0.000822   0.000001
    15  H    0.000006   0.000013   0.002806
    16  H   -0.009768   0.000001  -0.000336
    17  H   -0.000000  -0.000249  -0.000001
    18  H   -0.000000  -0.006148  -0.000000
    19  H    0.711398  -0.000000  -0.006964
    20  H   -0.000000   0.651886  -0.000000
    21  H   -0.006964  -0.000000   0.689350
 Mulliken charges:
               1
     1  N   -0.215329
     2  N   -0.211863
     3  C    0.233925
     4  C    0.033136
     5  C    0.065870
     6  C    0.123218
     7  C    0.051570
     8  C    0.146025
     9  C    0.019314
    10  C    0.055627
    11  C    0.302915
    12  B    0.231089
    13  F   -0.222498
    14  F   -0.235176
    15  H   -0.104893
    16  H   -0.092609
    17  H   -0.026715
    18  H   -0.052324
    19  H   -0.057646
    20  H   -0.011469
    21  H   -0.032166
 Sum of Mulliken charges =  -0.00000
 Mulliken charges with hydrogens summed into heavy atoms:
               1
     1  N   -0.215329
     2  N   -0.211863
     3  C    0.222456
     4  C   -0.019188
     5  C    0.039155
     6  C    0.123218
     7  C   -0.053323
     8  C    0.146025
     9  C   -0.012852
    10  C   -0.002020
    11  C    0.210305
    12  B    0.231089
    13  F   -0.222498
    14  F   -0.235176
 Electronic spatial extent (au):  <R**2>=          46912.5064
 Charge=             -0.0000 electrons
 Dipole moment (field-independent basis, Debye):
    X=              3.1387    Y=              3.2695    Z=             -0.7320  Tot=              4.5909
 Quadrupole moment (field-independent basis, Debye-Ang):
   XX=           -114.6669   YY=            -92.1443   ZZ=            -74.9357
   XY=            -19.8625   XZ=             40.3973   YZ=             35.4529
 Traceless Quadrupole moment (field-independent basis, Debye-Ang):
   XX=            -20.7512   YY=              1.7713   ZZ=             18.9799
   XY=            -19.8625   XZ=             40.3973   YZ=             35.4529
 Octapole moment (field-independent basis, Debye-Ang**2):
  XXX=           1719.8946  YYY=            427.9992  ZZZ=          -1906.6592  XYY=            547.7821
  XXY=            253.9527  XXZ=          -1187.3882  XZZ=            840.5450  YZZ=            475.6623
  YYZ=           -879.9929  XYZ=           -228.2632
 Hexadecapole moment (field-independent basis, Debye-Ang**3):
 XXXX=         -19882.5718 YYYY=          -1861.1085 ZZZZ=         -36065.7140 XXXY=          -3284.5009
 XXXZ=          16985.9600 YYYX=          -2737.2184 YYYZ=           3990.1243 ZZZX=          15410.4228
 ZZZY=           6648.2925 XXYY=          -3647.6045 XXZZ=         -14688.3938 YYZZ=          -8949.5408
 XXYZ=           2723.2433 YYXZ=           5216.2133 ZZXY=          -3130.8274
 N-N= 8.629080163359D+02 E-N=-3.319573463084D+03  KE= 6.760689641458D+02
 No NMR shielding tensors so no spin-rotation constants.
 Leave Link  601 at Tue May  6 19:27:58 2025, MaxMem=  1048576000 cpu:               0.6 elap:               0.1
 (Enter /usr/license/gaussian16_new/rev_c01/avx2/g16/l9999.exe)
 Electronic transition elements 
                 1 
      1  -0.680654D+03
      2   0.000000D+00
      3   0.000000D+00
      4   0.000000D+00
      5   0.000000D+00
      6   0.000000D+00
      7   0.000000D+00
      8   0.000000D+00
      9   0.000000D+00
     10   0.000000D+00
     11   0.000000D+00
     12   0.000000D+00
     13   0.000000D+00
     14   0.000000D+00
     15   0.000000D+00
     16   0.000000D+00

 Test job not archived.
 1\1\GINC-TELLURIUM3\SP\RwB97XD TDA-FC\def2SVP\C9H7B1F2N2\PITESA\06-May
 -2025\0\\#p nosym unit=AU wb97xd def2svp tda(nstates=1,triplets,root=1
 ,conver=6) density=Current GFINPUT charge\\SHARC-GAUSSIAN job\\0,1\N,0
 ,-5.8703970042,-1.6234930012,10.6968230076\N,0,-6.5669940047,-1.999859
 0014,8.3205540059\C,0,-5.8287660041,-1.5500430011,12.0486210086\C,0,-4
 .7961270034,-0.7314580005,12.4794030089\C,0,-4.1385390029,-0.275563000
 2,11.3408960081\C,0,-4.8206110034,-0.8297290006,10.2259020073\C,0,-4.6
 233040033,-0.6645940005,8.8515990063\C,0,-5.4780910039,-1.2197720009,7
 .9058950056\C,0,-5.5447770039,-1.1215020008,6.4946440046\C,0,-6.629393
 0047,-1.8124360013,6.0554650043\C,0,-7.2533780052,-2.3433000017,7.2173
 160051\B,0,-6.8356910049,-2.4435970017,9.793609007\F,0,-6.5809840047,-
 3.8073310027,9.9392180071\F,0,-8.1647690058,-2.1903220016,10.139746007
 2\H,0,-3.9474400028,-0.0810480001,8.5954810061\H,0,-7.9896980057,-2.84
 6811002,7.2317590051\H,0,-3.3964560024,0.3343230002,11.3615540081\H,0,
 -4.5343430032,-0.5268120004,13.3853040095\H,0,-6.9537850049,-1.9248900
 014,5.1626630037\H,0,-6.4104280046,-2.1275100015,12.5690860089\H,0,-4.
 8766360035,-0.5470740004,5.9872780043\\Version=ES64L-G16RevC.01\HF=-68
 0.7144825\RMSD=6.491e-09\Dipole=1.2348461,1.2863122,-0.2879847\Quadrup
 ole=-15.428034,1.3169497,14.1110843,-14.767294,30.0343797,26.3583898\P
 G=C01 [X(C9H7B1F2N2)]\\@


 IF YOU WISH TO UNDERSTAND THE FRAGRANCE OF THE ROSE, 
 OR THE TENACITY OF THE OAK; 
 IF YOU ARE NOT SATISFIED UNTIL YOU KNOW THE SECRET PATHS 
 BY WHICH THE SUNSHINE AND THE AIR ACHIEVE THESE WONDERS; 
 IF YOU WISH TO SEE THE PATTERN WHICH UNDERLIES ONE LARGE FIELD OF 
 HUMAN EXPERIENCE AND HUMAN MEASUREMENT, THEN TAKE UP CHEMISTRY.

                                         -- C. A. COULSON, 1973.
 Job cpu time:       0 days  0 hours 15 minutes 57.3 seconds.
 Elapsed time:       0 days  0 hours  2 minutes  0.8 seconds.
 File lengths (MBytes):  RWF=    304 Int=      0 D2E=      0 Chk=      8 Scr=      2
 Normal termination of Gaussian 16 at Tue May  6 19:27:58 2025.
