 Entering Gaussian System, Link 0=/usr/license/gaussian16_new/rev_c01/avx2/g16/g16
 Initial command:
 /usr/license/gaussian16_new/rev_c01/avx2/g16/l1.exe "./Gau-67657.inp" -scrdir="./"
 Entering Link 1 = /usr/license/gaussian16_new/rev_c01/avx2/g16/l1.exe PID=     67665.
  
 Copyright (c) 1988-2019, Gaussian, Inc.  All Rights Reserved.
  
 This is part of the Gaussian(R) 16 program.  It is based on
 the Gaussian(R) 09 system (copyright 2009, Gaussian, Inc.),
 the Gaussian(R) 03 system (copyright 2003, Gaussian, Inc.),
 the Gaussian(R) 98 system (copyright 1998, Gaussian, Inc.),
 the Gaussian(R) 94 system (copyright 1995, Gaussian, Inc.),
 the Gaussian 92(TM) system (copyright 1992, Gaussian, Inc.),
 the Gaussian 90(TM) system (copyright 1990, Gaussian, Inc.),
 the Gaussian 88(TM) system (copyright 1988, Gaussian, Inc.),
 the Gaussian 86(TM) system (copyright 1986, Carnegie Mellon
 University), and the Gaussian 82(TM) system (copyright 1983,
 Carnegie Mellon University). Gaussian is a federally registered
 trademark of Gaussian, Inc.
  
 This software contains proprietary and confidential information,
 including trade secrets, belonging to Gaussian, Inc.
  
 This software is provided under written license and may be
 used, copied, transmitted, or stored only in accord with that
 written license.
  
 The following legend is applicable only to US Government
 contracts under FAR:
  
                    RESTRICTED RIGHTS LEGEND
  
 Use, reproduction and disclosure by the US Government is
 subject to restrictions as set forth in subparagraphs (a)
 and (c) of the Commercial Computer Software - Restricted
 Rights clause in FAR 52.227-19.
  
 Gaussian, Inc.
 340 Quinnipiac St., Bldg. 40, Wallingford CT 06492
  
  
 ---------------------------------------------------------------
 Warning -- This program may not be used in any manner that
 competes with the business of Gaussian, Inc. or will provide
 assistance to any competitor of Gaussian, Inc.  The licensee
 of this program is prohibited from giving any competitor of
 Gaussian, Inc. access to this program.  By using this program,
 the user acknowledges that Gaussian, Inc. is engaged in the
 business of creating and licensing software in the field of
 computational chemistry and represents and warrants to the
 licensee that it is not a competitor of Gaussian, Inc. and that
 it will not use this program in any manner prohibited above.
 ---------------------------------------------------------------
  

 Cite this work as:
 Gaussian 16, Revision C.01,
 M. J. Frisch, G. W. Trucks, H. B. Schlegel, G. E. Scuseria, 
 M. A. Robb, J. R. Cheeseman, G. Scalmani, V. Barone, 
 G. A. Petersson, H. Nakatsuji, X. Li, M. Caricato, A. V. Marenich, 
 J. Bloino, B. G. Janesko, R. Gomperts, B. Mennucci, H. P. Hratchian, 
 J. V. Ortiz, A. F. Izmaylov, J. L. Sonnenberg, D. Williams-Young, 
 F. Ding, F. Lipparini, F. Egidi, J. Goings, B. Peng, A. Petrone, 
 T. Henderson, D. Ranasinghe, V. G. Zakrzewski, J. Gao, N. Rega, 
 G. Zheng, W. Liang, M. Hada, M. Ehara, K. Toyota, R. Fukuda, 
 J. Hasegawa, M. Ishida, T. Nakajima, Y. Honda, O. Kitao, H. Nakai, 
 T. Vreven, K. Throssell, J. A. Montgomery, Jr., J. E. Peralta, 
 F. Ogliaro, M. J. Bearpark, J. J. Heyd, E. N. Brothers, K. N. Kudin, 
 V. N. Staroverov, T. A. Keith, R. Kobayashi, J. Normand, 
 K. Raghavachari, A. P. Rendell, J. C. Burant, S. S. Iyengar, 
 J. Tomasi, M. Cossi, J. M. Millam, M. Klene, C. Adamo, R. Cammi, 
 J. W. Ochterski, R. L. Martin, K. Morokuma, O. Farkas, 
 J. B. Foresman, and D. J. Fox, Gaussian, Inc., Wallingford CT, 2019.
 
 ******************************************
 Gaussian 16:  ES64L-G16RevC.01  3-Jul-2019
                 6-May-2025 
 ******************************************
 %MEM=8000MB
 %NProcShared=8
 Will use up to    8 processors via shared memory.
 %Chk=GAUSSIAN.chk
 Default route: IOP(99/10=0)
 ----------------------------------------------------------------------
 #p nosym unit=AU wb97xd def2svp tda(nstates=1,singlets,root=1,conver=6
 ) density=Current GFINPUT charge
 ----------------------------------------------------------------------
 1/18=10,20=1,28=-2,30=1,38=1,125=101,172=1/1;
 2/12=2,15=1,17=6,18=5,40=1/2;
 3/5=43,7=101,11=9,24=10,25=1,30=1,71=1,74=-58/1,2,3,8;
 4//1;
 5/5=2,38=5/2;
 8/6=1,10=1,107=1,108=1/1;
 9/8=1,9=6,15=1,41=1,42=1,48=1/14;
 10/5=4,13=10,28=1,31=1/2;
 6/7=2,8=2,9=2,10=2,22=-1/1;
 99/5=1,9=1/99;
 Leave Link    1 at Tue May  6 19:25:56 2025, MaxMem=  1048576000 cpu:               0.9 elap:               0.1
 (Enter /usr/license/gaussian16_new/rev_c01/avx2/g16/l101.exe)
 ------------------
 SHARC-GAUSSIAN job
 ------------------
 Symbolic Z-matrix:
 Charge =  0 Multiplicity = 1
 N                    -1.51064   6.50445   20.21407 
 N                    -2.82702   5.79322   15.72357 
 C                    -1.43197   6.64325   22.76859 
 C                     0.51943   8.19015   23.58265 
 C                     1.7621    9.05167   21.43119 
 C                     0.47317   8.00445   19.32415 
 C                     0.84602   8.31651   16.7271 
 C                    -0.76929   7.26737   14.93998 
 C                    -0.89531   7.45308   12.2731 
 C                    -2.94494   6.1474    11.44317 
 C                    -4.1241    5.14421   13.63875 
 B                    -3.33478   4.95468   18.50724 
 F                    -2.85346   2.37759   18.7824 
 F                    -5.84638   5.4333    19.16134 
 H                     2.12322   9.41925   16.24311 
 H                    -5.51554   4.19271   13.66604 
 H                     3.16443   10.20419   21.47023 
 H                     1.01413   8.57688   25.29456 
 H                    -3.55795   5.93489   9.75602 
 H                    -2.53115   5.552     23.75213 
 H                     0.36729   8.53859   11.31432 
 
 ITRead=  0  0  0  0  0  0  0  0  0  0  0  0  0  0  0  0  0  0  0  0
 ITRead=  0
 MicOpt= -1 -1 -1 -1 -1 -1 -1 -1 -1 -1 -1 -1 -1 -1 -1 -1 -1 -1 -1 -1
 MicOpt= -1
 NAtoms=     21 NQM=       21 NQMF=       0 NMMI=      0 NMMIF=      0
                NMic=       0 NMicF=      0.
                    Isotopes and Nuclear Properties:
 (Nuclear quadrupole moments (NQMom) in fm**2, nuclear magnetic moments (NMagM)
  in nuclear magnetons)

  Atom         1           2           3           4           5           6           7           8           9          10
 IAtWgt=          14          14          12          12          12          12          12          12          12          12
 AtmWgt=  14.0030740  14.0030740  12.0000000  12.0000000  12.0000000  12.0000000  12.0000000  12.0000000  12.0000000  12.0000000
 NucSpn=           2           2           0           0           0           0           0           0           0           0
 AtZEff=  -0.0000000  -0.0000000  -0.0000000  -0.0000000  -0.0000000  -0.0000000  -0.0000000  -0.0000000  -0.0000000  -0.0000000
 NQMom=    2.0440000   2.0440000   0.0000000   0.0000000   0.0000000   0.0000000   0.0000000   0.0000000   0.0000000   0.0000000
 NMagM=    0.4037610   0.4037610   0.0000000   0.0000000   0.0000000   0.0000000   0.0000000   0.0000000   0.0000000   0.0000000
 AtZNuc=   7.0000000   7.0000000   6.0000000   6.0000000   6.0000000   6.0000000   6.0000000   6.0000000   6.0000000   6.0000000

  Atom        11          12          13          14          15          16          17          18          19          20
 IAtWgt=          12          11          19          19           1           1           1           1           1           1
 AtmWgt=  12.0000000  11.0093053  18.9984032  18.9984032   1.0078250   1.0078250   1.0078250   1.0078250   1.0078250   1.0078250
 NucSpn=           0           3           1           1           1           1           1           1           1           1
 AtZEff=  -0.0000000  -0.0000000  -0.0000000  -0.0000000  -0.0000000  -0.0000000  -0.0000000  -0.0000000  -0.0000000  -0.0000000
 NQMom=    0.0000000   4.0590000   0.0000000   0.0000000   0.0000000   0.0000000   0.0000000   0.0000000   0.0000000   0.0000000
 NMagM=    0.0000000   2.6886370   2.6288670   2.6288670   2.7928460   2.7928460   2.7928460   2.7928460   2.7928460   2.7928460
 AtZNuc=   6.0000000   5.0000000   9.0000000   9.0000000   1.0000000   1.0000000   1.0000000   1.0000000   1.0000000   1.0000000

  Atom        21
 IAtWgt=           1
 AtmWgt=   1.0078250
 NucSpn=           1
 AtZEff=  -0.0000000
 NQMom=    0.0000000
 NMagM=    2.7928460
 AtZNuc=   1.0000000
 Background charge distribution read from input stream:
 Point Charges:
 XYZ=   -5.8704   -1.6235   10.6968 Q=   -0.0546 A=    0.0000 R=    0.0000 C=    0.0000
 XYZ=   -6.5670   -1.9999    8.3206 Q=   -0.0429 A=    0.0000 R=    0.0000 C=    0.0000
 XYZ=   -5.8288   -1.5500   12.0486 Q=   -0.0259 A=    0.0000 R=    0.0000 C=    0.0000
 XYZ=   -4.7961   -0.7315   12.4794 Q=   -0.2481 A=    0.0000 R=    0.0000 C=    0.0000
 XYZ=   -4.1385   -0.2756   11.3409 Q=   -0.1631 A=    0.0000 R=    0.0000 C=    0.0000
 XYZ=   -4.8206   -0.8297   10.2259 Q=    0.0566 A=    0.0000 R=    0.0000 C=    0.0000
 XYZ=   -4.6233   -0.6646    8.8516 Q=   -0.1118 A=    0.0000 R=    0.0000 C=    0.0000
 XYZ=   -5.4781   -1.2198    7.9059 Q=    0.0357 A=    0.0000 R=    0.0000 C=    0.0000
 XYZ=   -5.5448   -1.1215    6.4946 Q=   -0.1673 A=    0.0000 R=    0.0000 C=    0.0000
 XYZ=   -6.6294   -1.8124    6.0555 Q=   -0.2358 A=    0.0000 R=    0.0000 C=    0.0000
 XYZ=   -7.2534   -2.3433    7.2173 Q=   -0.0236 A=    0.0000 R=    0.0000 C=    0.0000
 XYZ=   -6.8357   -2.4436    9.7936 Q=    0.4464 A=    0.0000 R=    0.0000 C=    0.0000
 XYZ=   -6.5810   -3.8073    9.9392 Q=   -0.3433 A=    0.0000 R=    0.0000 C=    0.0000
 XYZ=   -8.1648   -2.1903   10.1397 Q=   -0.3566 A=    0.0000 R=    0.0000 C=    0.0000
 XYZ=   -3.9474   -0.0810    8.5955 Q=    0.1912 A=    0.0000 R=    0.0000 C=    0.0000
 XYZ=   -7.9897   -2.8468    7.2318 Q=    0.1796 A=    0.0000 R=    0.0000 C=    0.0000
 XYZ=   -3.3965    0.3343   11.3616 Q=    0.1968 A=    0.0000 R=    0.0000 C=    0.0000
 XYZ=   -4.5343   -0.5268   13.3853 Q=    0.1698 A=    0.0000 R=    0.0000 C=    0.0000
 XYZ=   -6.9538   -1.9249    5.1627 Q=    0.1723 A=    0.0000 R=    0.0000 C=    0.0000
 XYZ=   -6.4104   -2.1275   12.5691 Q=    0.1735 A=    0.0000 R=    0.0000 C=    0.0000
 XYZ=   -4.8766   -0.5471    5.9873 Q=    0.1510 A=    0.0000 R=    0.0000 C=    0.0000
 Pt Chg Charge=             -0.0000 electrons
 Pt Chg Dipole moment (Debye):
    X=              3.7113    Y=              3.6427    Z=             -1.1623  Tot=              5.3286
 Pt Chg Quadrupole moment (Debye-Ang):
   XX=            -40.2736   YY=            -12.5913   ZZ=             -5.4092
   XY=            -22.3133   XZ=             47.1169   YZ=             38.7021
 Pt Chg Traceless Quadrupole moment (Debye-Ang):
   XX=            -20.8489   YY=              6.8334   ZZ=             14.0155
   XY=            -22.3133   XZ=             47.1169   YZ=             38.7021
 Pt Chg Octapole moment (Debye-Ang**2):
  XXX=            353.6045  YYY=             56.4275  ZZZ=            158.7445  XYY=             81.1448
  XXY=            145.4800  XXZ=           -493.3423  XZZ=            461.3203  YZZ=            383.5105
  YYZ=           -134.3469  XYZ=           -248.7820
 Pt Chg Hexadecapole moment (Debye-Ang**3):
 XXXX=          -2965.6665 YYYY=           -246.9171 ZZZZ=           5336.6460 XXXY=          -1005.5748
 XXXZ=           4366.6965 YYYX=           -361.7612 YYYZ=            596.7927 ZZZX=           3639.6885
 ZZZY=           3594.2571 XXYY=           -529.6863 XXZZ=          -5091.2548 YYZZ=          -1353.2545
 XXYZ=           1717.3359 YYXZ=            902.4175 ZZXY=          -2532.9141
 Leave Link  101 at Tue May  6 19:25:57 2025, MaxMem=  1048576000 cpu:               0.3 elap:               0.1
 (Enter /usr/license/gaussian16_new/rev_c01/avx2/g16/l202.exe)
                          Input orientation:                          
 ---------------------------------------------------------------------
 Center     Atomic      Atomic             Coordinates (Angstroms)
 Number     Number       Type             X           Y           Z
 ---------------------------------------------------------------------
      1          7           0       -0.799397    3.442007   10.696823
      2          7           0       -1.495994    3.065641    8.320554
      3          6           0       -0.757766    3.515457   12.048621
      4          6           0        0.274873    4.334042   12.479403
      5          6           0        0.932461    4.789937   11.340896
      6          6           0        0.250389    4.235771   10.225902
      7          6           0        0.447696    4.400906    8.851599
      8          6           0       -0.407091    3.845728    7.905895
      9          6           0       -0.473777    3.943998    6.494644
     10          6           0       -1.558393    3.253064    6.055465
     11          6           0       -2.182378    2.722200    7.217316
     12          5           0       -1.764691    2.621903    9.793609
     13          9           0       -1.509984    1.258169    9.939218
     14          9           0       -3.093769    2.875178   10.139746
     15          1           0        1.123560    4.984452    8.595481
     16          1           0       -2.918698    2.218689    7.231759
     17          1           0        1.674544    5.399823   11.361554
     18          1           0        0.536657    4.538688   13.385304
     19          1           0       -1.882785    3.140610    5.162663
     20          1           0       -1.339428    2.937990   12.569086
     21          1           0        0.194364    4.518426    5.987278
 ---------------------------------------------------------------------
                    Distance matrix (angstroms):
                    1          2          3          4          5
     1  N    0.000000
     2  N    2.504706   0.000000
     3  C    1.354432   3.826983   0.000000
     4  C    2.264371   4.694767   1.386361   0.000000
     5  C    2.287155   4.241822   2.232049   1.391568   0.000000
     6  C    1.397812   2.837148   2.203981   2.255776   1.419695
     7  C    2.424784   2.417203   3.529605   3.632534   2.565724
     8  C    2.847134   1.402208   4.170639   4.649785   3.805938
     9  C    4.244565   2.269446   5.577720   6.044001   5.116569
    10  C    4.706801   2.273686   6.052088   6.767301   6.041698
    11  C    3.812837   1.343953   5.099047   6.027079   5.566118
    12  B    1.555686   1.561727   2.626293   3.782160   3.790659
    13  F    2.418274   2.426360   3.179742   4.370269   4.517037
    14  F    2.428121   2.428708   3.083938   4.353163   4.617314
    15  H    3.239219   3.258755   4.197798   4.028418   2.758923
    16  H    4.242006   1.981638   5.436303   6.497029   6.190941
    17  H    3.224174   4.974776   3.152622   2.084359   0.960768
    18  H    3.196198   5.652719   2.123500   0.964918   2.097473
    19  H    5.647256   3.182374   6.987317   7.721040   6.986877
    20  H    2.012718   4.253332   0.970918   2.136111   3.177993
    21  H    4.932145   3.226774   6.217104   6.495242   5.411075
                    6          7          8          9         10
     6  C    0.000000
     7  C    1.398180   0.000000
     8  C    2.442713   1.390410   0.000000
     9  C    3.812064   2.571598   1.416239   0.000000
    10  C    4.650801   3.627713   2.258504   1.358919   0.000000
    11  C    4.154617   3.522247   2.210905   2.221343   1.421644
    12  B    2.617631   2.991135   2.627601   3.781212   3.796662
    13  F    3.470910   3.859044   3.470769   4.489153   4.366404
    14  F    3.611375   4.065605   3.626334   4.614488   4.379672
    15  H    1.995300   0.928932   2.028574   2.836820   4.079492
    16  H    4.803814   4.326495   3.067554   3.081829   2.074615
    17  H    2.161698   2.966962   4.323193   5.515571   6.573814
    18  H    3.186774   4.536670   5.603104   6.989694   7.731016
    19  H    5.602339   4.541777   3.193773   2.098788   0.956541
    20  H    3.114846   4.376488   4.841342   6.217737   6.524912
    21  H    4.248407   2.877903   2.120227   1.016760   2.162856
                   11         12         13         14         15
    11  C    0.000000
    12  B    2.611859   0.000000
    13  F    3.162950   1.394937   0.000000
    14  F    3.065067   1.396570   2.272291   0.000000
    15  H    4.236313   3.919074   4.756718   4.961820   0.000000
    16  H    0.892132   2.838554   3.199595   2.986305   5.084194
    17  H    6.262605   4.690803   5.414569   5.532039   2.850838
    18  H    6.981179   4.676595   5.179387   5.145960   4.846191
    19  H    2.118118   4.661402   5.147625   5.129161   4.921596
    20  H    5.422045   2.825603   3.125235   2.997224   5.103318
    21  H    3.223092   4.682185   5.399251   5.545726   2.807723
                   16         17         18         19         20
    16  H    0.000000
    17  H    6.947855   0.000000
    18  H    7.428862   2.476268   0.000000
    19  H    2.490826   7.495658   8.684477   0.000000
    20  H    5.612357   4.074651   2.597718   7.429091   0.000000
    21  H    4.065548   5.643637   7.405968   2.625436   6.940497
                   21
    21  H    0.000000
 Symmetry turned off by external request.
 Stoichiometry    C9H7BF2N2
 Framework group  C1[X(C9H7BF2N2)]
 Deg. of freedom    57
 Full point group                 C1      NOp   1
 Rotational constants (GHZ):           1.2887992           0.6413832           0.4683174
 Leave Link  202 at Tue May  6 19:25:57 2025, MaxMem=  1048576000 cpu:               0.0 elap:               0.0
 (Enter /usr/license/gaussian16_new/rev_c01/avx2/g16/l301.exe)
 Standard basis: def2SVP (5D, 7F)
 Ernie: Thresh=  0.10000D-02 Tol=  0.10000D-05 Strict=F.
 AO basis set in the form of general basis input (Overlap normalization):
      1 0
 S   5 1.00       0.000000000000
      0.1712841585D+04 -0.5447799580D-02
      0.2576481268D+03 -0.4062717463D-01
      0.5845824585D+02 -0.1811196225D+00
      0.1619836791D+02 -0.4684397556D+00
      0.5005260081D+01 -0.4461684629D+00
 S   1 1.00       0.000000000000
      0.5873185657D+00  0.1000000000D+01
 S   1 1.00       0.000000000000
      0.1876459225D+00  0.1000000000D+01
 P   3 1.00       0.000000000000
      0.1357147023D+02 -0.5884811697D-01
      0.2925737287D+01 -0.3202462476D+00
      0.7992775075D+00 -0.7532822652D+00
 P   1 1.00       0.000000000000
      0.2195434803D+00  0.1000000000D+01
 D   1 1.00       0.000000000000
      0.1000000000D+01  0.1000000000D+01
 ****
      2 0
 S   5 1.00       0.000000000000
      0.1712841585D+04 -0.5447799580D-02
      0.2576481268D+03 -0.4062717463D-01
      0.5845824585D+02 -0.1811196225D+00
      0.1619836791D+02 -0.4684397556D+00
      0.5005260081D+01 -0.4461684629D+00
 S   1 1.00       0.000000000000
      0.5873185657D+00  0.1000000000D+01
 S   1 1.00       0.000000000000
      0.1876459225D+00  0.1000000000D+01
 P   3 1.00       0.000000000000
      0.1357147023D+02 -0.5884811697D-01
      0.2925737287D+01 -0.3202462476D+00
      0.7992775075D+00 -0.7532822652D+00
 P   1 1.00       0.000000000000
      0.2195434803D+00  0.1000000000D+01
 D   1 1.00       0.000000000000
      0.1000000000D+01  0.1000000000D+01
 ****
      3 0
 S   5 1.00       0.000000000000
      0.1238401694D+04  0.5517365048D-02
      0.1862900499D+03  0.4108882856D-01
      0.4225117635D+02  0.1822538213D+00
      0.1167655793D+02  0.4682845944D+00
      0.3593050648D+01  0.4457581734D+00
 S   1 1.00       0.000000000000
      0.4024514736D+00  0.1000000000D+01
 S   1 1.00       0.000000000000
      0.1309018267D+00  0.1000000000D+01
 P   3 1.00       0.000000000000
      0.9468097062D+01  0.5688833201D-01
      0.2010354514D+01  0.3129405934D+00
      0.5477100471D+00  0.7606501651D+00
 P   1 1.00       0.000000000000
      0.1526861379D+00  0.1000000000D+01
 D   1 1.00       0.000000000000
      0.8000000000D+00  0.1000000000D+01
 ****
      4 0
 S   5 1.00       0.000000000000
      0.1238401694D+04  0.5517365048D-02
      0.1862900499D+03  0.4108882856D-01
      0.4225117635D+02  0.1822538213D+00
      0.1167655793D+02  0.4682845944D+00
      0.3593050648D+01  0.4457581734D+00
 S   1 1.00       0.000000000000
      0.4024514736D+00  0.1000000000D+01
 S   1 1.00       0.000000000000
      0.1309018267D+00  0.1000000000D+01
 P   3 1.00       0.000000000000
      0.9468097062D+01  0.5688833201D-01
      0.2010354514D+01  0.3129405934D+00
      0.5477100471D+00  0.7606501651D+00
 P   1 1.00       0.000000000000
      0.1526861379D+00  0.1000000000D+01
 D   1 1.00       0.000000000000
      0.8000000000D+00  0.1000000000D+01
 ****
      5 0
 S   5 1.00       0.000000000000
      0.1238401694D+04  0.5517365048D-02
      0.1862900499D+03  0.4108882856D-01
      0.4225117635D+02  0.1822538213D+00
      0.1167655793D+02  0.4682845944D+00
      0.3593050648D+01  0.4457581734D+00
 S   1 1.00       0.000000000000
      0.4024514736D+00  0.1000000000D+01
 S   1 1.00       0.000000000000
      0.1309018267D+00  0.1000000000D+01
 P   3 1.00       0.000000000000
      0.9468097062D+01  0.5688833201D-01
      0.2010354514D+01  0.3129405934D+00
      0.5477100471D+00  0.7606501651D+00
 P   1 1.00       0.000000000000
      0.1526861379D+00  0.1000000000D+01
 D   1 1.00       0.000000000000
      0.8000000000D+00  0.1000000000D+01
 ****
      6 0
 S   5 1.00       0.000000000000
      0.1238401694D+04  0.5517365048D-02
      0.1862900499D+03  0.4108882856D-01
      0.4225117635D+02  0.1822538213D+00
      0.1167655793D+02  0.4682845944D+00
      0.3593050648D+01  0.4457581734D+00
 S   1 1.00       0.000000000000
      0.4024514736D+00  0.1000000000D+01
 S   1 1.00       0.000000000000
      0.1309018267D+00  0.1000000000D+01
 P   3 1.00       0.000000000000
      0.9468097062D+01  0.5688833201D-01
      0.2010354514D+01  0.3129405934D+00
      0.5477100471D+00  0.7606501651D+00
 P   1 1.00       0.000000000000
      0.1526861379D+00  0.1000000000D+01
 D   1 1.00       0.000000000000
      0.8000000000D+00  0.1000000000D+01
 ****
      7 0
 S   5 1.00       0.000000000000
      0.1238401694D+04  0.5517365048D-02
      0.1862900499D+03  0.4108882856D-01
      0.4225117635D+02  0.1822538213D+00
      0.1167655793D+02  0.4682845944D+00
      0.3593050648D+01  0.4457581734D+00
 S   1 1.00       0.000000000000
      0.4024514736D+00  0.1000000000D+01
 S   1 1.00       0.000000000000
      0.1309018267D+00  0.1000000000D+01
 P   3 1.00       0.000000000000
      0.9468097062D+01  0.5688833201D-01
      0.2010354514D+01  0.3129405934D+00
      0.5477100471D+00  0.7606501651D+00
 P   1 1.00       0.000000000000
      0.1526861379D+00  0.1000000000D+01
 D   1 1.00       0.000000000000
      0.8000000000D+00  0.1000000000D+01
 ****
      8 0
 S   5 1.00       0.000000000000
      0.1238401694D+04  0.5517365048D-02
      0.1862900499D+03  0.4108882856D-01
      0.4225117635D+02  0.1822538213D+00
      0.1167655793D+02  0.4682845944D+00
      0.3593050648D+01  0.4457581734D+00
 S   1 1.00       0.000000000000
      0.4024514736D+00  0.1000000000D+01
 S   1 1.00       0.000000000000
      0.1309018267D+00  0.1000000000D+01
 P   3 1.00       0.000000000000
      0.9468097062D+01  0.5688833201D-01
      0.2010354514D+01  0.3129405934D+00
      0.5477100471D+00  0.7606501651D+00
 P   1 1.00       0.000000000000
      0.1526861379D+00  0.1000000000D+01
 D   1 1.00       0.000000000000
      0.8000000000D+00  0.1000000000D+01
 ****
      9 0
 S   5 1.00       0.000000000000
      0.1238401694D+04  0.5517365048D-02
      0.1862900499D+03  0.4108882856D-01
      0.4225117635D+02  0.1822538213D+00
      0.1167655793D+02  0.4682845944D+00
      0.3593050648D+01  0.4457581734D+00
 S   1 1.00       0.000000000000
      0.4024514736D+00  0.1000000000D+01
 S   1 1.00       0.000000000000
      0.1309018267D+00  0.1000000000D+01
 P   3 1.00       0.000000000000
      0.9468097062D+01  0.5688833201D-01
      0.2010354514D+01  0.3129405934D+00
      0.5477100471D+00  0.7606501651D+00
 P   1 1.00       0.000000000000
      0.1526861379D+00  0.1000000000D+01
 D   1 1.00       0.000000000000
      0.8000000000D+00  0.1000000000D+01
 ****
     10 0
 S   5 1.00       0.000000000000
      0.1238401694D+04  0.5517365048D-02
      0.1862900499D+03  0.4108882856D-01
      0.4225117635D+02  0.1822538213D+00
      0.1167655793D+02  0.4682845944D+00
      0.3593050648D+01  0.4457581734D+00
 S   1 1.00       0.000000000000
      0.4024514736D+00  0.1000000000D+01
 S   1 1.00       0.000000000000
      0.1309018267D+00  0.1000000000D+01
 P   3 1.00       0.000000000000
      0.9468097062D+01  0.5688833201D-01
      0.2010354514D+01  0.3129405934D+00
      0.5477100471D+00  0.7606501651D+00
 P   1 1.00       0.000000000000
      0.1526861379D+00  0.1000000000D+01
 D   1 1.00       0.000000000000
      0.8000000000D+00  0.1000000000D+01
 ****
     11 0
 S   5 1.00       0.000000000000
      0.1238401694D+04  0.5517365048D-02
      0.1862900499D+03  0.4108882856D-01
      0.4225117635D+02  0.1822538213D+00
      0.1167655793D+02  0.4682845944D+00
      0.3593050648D+01  0.4457581734D+00
 S   1 1.00       0.000000000000
      0.4024514736D+00  0.1000000000D+01
 S   1 1.00       0.000000000000
      0.1309018267D+00  0.1000000000D+01
 P   3 1.00       0.000000000000
      0.9468097062D+01  0.5688833201D-01
      0.2010354514D+01  0.3129405934D+00
      0.5477100471D+00  0.7606501651D+00
 P   1 1.00       0.000000000000
      0.1526861379D+00  0.1000000000D+01
 D   1 1.00       0.000000000000
      0.8000000000D+00  0.1000000000D+01
 ****
     12 0
 S   5 1.00       0.000000000000
      0.8393183009D+03 -0.5628883598D-02
      0.1262646484D+03 -0.4183279461D-01
      0.2862060076D+02 -0.1841748813D+00
      0.7879372271D+01 -0.4683965503D+00
      0.2408885717D+01 -0.4445793088D+00
 S   1 1.00       0.000000000000
      0.2510510904D+00  0.1000000000D+01
 S   1 1.00       0.000000000000
      0.8364886607D-01  0.1000000000D+01
 P   3 1.00       0.000000000000
      0.6033222362D+01 -0.5403250032D-01
      0.1249915787D+01 -0.3019403439D+00
      0.3387167635D+00 -0.7717079166D+00
 P   1 1.00       0.000000000000
      0.9641563235D-01  0.1000000000D+01
 D   1 1.00       0.000000000000
      0.5000000000D+00  0.1000000000D+01
 ****
     13 0
 S   5 1.00       0.000000000000
      0.2894832599D+04 -0.5349321176D-02
      0.4354193912D+03 -0.3996773437D-01
      0.9884332887D+02 -0.1794126179D+00
      0.2748519800D+02 -0.4683246869D+00
      0.8540549817D+01 -0.4472416053D+00
 S   1 1.00       0.000000000000
      0.1065457804D+01  0.1000000000D+01
 S   1 1.00       0.000000000000
      0.3324734675D+00  0.1000000000D+01
 P   3 1.00       0.000000000000
      0.2269663392D+02 -0.6478214824D-01
      0.4987233926D+01 -0.3403578536D+00
      0.1349161395D+01 -0.7348581537D+00
 P   1 1.00       0.000000000000
      0.3482988198D+00  0.1000000000D+01
 D   1 1.00       0.000000000000
      0.1400000000D+01  0.1000000000D+01
 ****
     14 0
 S   5 1.00       0.000000000000
      0.2894832599D+04 -0.5349321176D-02
      0.4354193912D+03 -0.3996773437D-01
      0.9884332887D+02 -0.1794126179D+00
      0.2748519800D+02 -0.4683246869D+00
      0.8540549817D+01 -0.4472416053D+00
 S   1 1.00       0.000000000000
      0.1065457804D+01  0.1000000000D+01
 S   1 1.00       0.000000000000
      0.3324734675D+00  0.1000000000D+01
 P   3 1.00       0.000000000000
      0.2269663392D+02 -0.6478214824D-01
      0.4987233926D+01 -0.3403578536D+00
      0.1349161395D+01 -0.7348581537D+00
 P   1 1.00       0.000000000000
      0.3482988198D+00  0.1000000000D+01
 D   1 1.00       0.000000000000
      0.1400000000D+01  0.1000000000D+01
 ****
     15 0
 S   3 1.00       0.000000000000
      0.1301070100D+02  0.3348548481D-01
      0.1962257200D+01  0.2347218709D+00
      0.4445379600D+00  0.8137702853D+00
 S   1 1.00       0.000000000000
      0.1219496200D+00  0.1000000000D+01
 P   1 1.00       0.000000000000
      0.8000000000D+00  0.1000000000D+01
 ****
     16 0
 S   3 1.00       0.000000000000
      0.1301070100D+02  0.3348548481D-01
      0.1962257200D+01  0.2347218709D+00
      0.4445379600D+00  0.8137702853D+00
 S   1 1.00       0.000000000000
      0.1219496200D+00  0.1000000000D+01
 P   1 1.00       0.000000000000
      0.8000000000D+00  0.1000000000D+01
 ****
     17 0
 S   3 1.00       0.000000000000
      0.1301070100D+02  0.3348548481D-01
      0.1962257200D+01  0.2347218709D+00
      0.4445379600D+00  0.8137702853D+00
 S   1 1.00       0.000000000000
      0.1219496200D+00  0.1000000000D+01
 P   1 1.00       0.000000000000
      0.8000000000D+00  0.1000000000D+01
 ****
     18 0
 S   3 1.00       0.000000000000
      0.1301070100D+02  0.3348548481D-01
      0.1962257200D+01  0.2347218709D+00
      0.4445379600D+00  0.8137702853D+00
 S   1 1.00       0.000000000000
      0.1219496200D+00  0.1000000000D+01
 P   1 1.00       0.000000000000
      0.8000000000D+00  0.1000000000D+01
 ****
     19 0
 S   3 1.00       0.000000000000
      0.1301070100D+02  0.3348548481D-01
      0.1962257200D+01  0.2347218709D+00
      0.4445379600D+00  0.8137702853D+00
 S   1 1.00       0.000000000000
      0.1219496200D+00  0.1000000000D+01
 P   1 1.00       0.000000000000
      0.8000000000D+00  0.1000000000D+01
 ****
     20 0
 S   3 1.00       0.000000000000
      0.1301070100D+02  0.3348548481D-01
      0.1962257200D+01  0.2347218709D+00
      0.4445379600D+00  0.8137702853D+00
 S   1 1.00       0.000000000000
      0.1219496200D+00  0.1000000000D+01
 P   1 1.00       0.000000000000
      0.8000000000D+00  0.1000000000D+01
 ****
     21 0
 S   3 1.00       0.000000000000
      0.1301070100D+02  0.3348548481D-01
      0.1962257200D+01  0.2347218709D+00
      0.4445379600D+00  0.8137702853D+00
 S   1 1.00       0.000000000000
      0.1219496200D+00  0.1000000000D+01
 P   1 1.00       0.000000000000
      0.8000000000D+00  0.1000000000D+01
 ****

   231 basis functions,   399 primitive gaussians,   245 cartesian basis functions
    49 alpha electrons       49 beta electrons
       nuclear repulsion energy       864.2580296774 Hartrees.
 IExCor= 4639 DFT=T Ex+Corr=wB97XD ExCW=0 ScaHFX=  1.000000
 ScaDFX=  1.000000  1.000000  1.000000  1.000000 ScalE2=  1.000000  1.000000
 IRadAn=      5 IRanWt=     -1 IRanGd=            0 ICorTp=0 IEmpDi=121
 HFx  wShort=  0.000000 wLong=  0.200000 cFull=  0.222036 cShort=  0.000000 cLong=  0.777964
 DFx  wShort=  0.000000 wLong=  0.200000 cFull=  0.000000 cShort=  0.000000 cLong=  1.000000
 NAtoms=   21 NActive=   21 NUniq=   21 SFac= 1.00D+00 NAtFMM=   60 NAOKFM=F Big=F
 Integral buffers will be    131072 words long.
 Raffenetti 1 integral format.
 Two-electron integral symmetry is turned off.
 Background charge distribution read from rwf.
 PtFMM for NChg=        42 BoxLen=    40.00 Levels= 1 LMax=20 SMax=    18.6 ICnFMM=     1:
 Self energy of the charges =        -0.1959756849 a.u.
 MM   energy of the charges =         0.0000000000 a.u.
 Nuclei-charges interaction =         1.2752288298 a.u.
 Nuclear repulsion after external point charges =      865.3372828223 Hartrees.
 R6Disp:  Grimme-D2 Dispersion energy=       -0.0135649705 Hartrees.
 Nuclear repulsion after empirical dispersion term =      865.3237178517 Hartrees.
 Leave Link  301 at Tue May  6 19:25:57 2025, MaxMem=  1048576000 cpu:               0.3 elap:               0.1
 (Enter /usr/license/gaussian16_new/rev_c01/avx2/g16/l302.exe)
 NPDir=0 NMtPBC=     1 NCelOv=     1 NCel=       1 NClECP=     1 NCelD=      1
         NCelK=      1 NCelE2=     1 NClLst=     1 CellRange=     0.0.
 One-electron integrals computed using PRISM.
   1 Symmetry operations used in ECPInt.
 ECPInt:  NShTT=    5565 NPrTT=   20909 LenC2=    5389 LenP2D=   15019.
 LDataN:  DoStor=T MaxTD1= 4 Len=   56
 NBasis=   231 RedAO= T EigKep=  6.04D-04  NBF=   231
 NBsUse=   231 1.00D-06 EigRej= -1.00D+00 NBFU=   231
 Precomputing XC quadrature grid using
 IXCGrd= 4 IRadAn=           5 IRanWt=          -1 IRanGd=           0 AccXCQ= 0.00D+00.
 Generated NRdTot=       0 NPtTot=           0 NUsed=           0 NTot=          32
 NSgBfM=   245   245   245   245   245 MxSgAt=    21 MxSgA2=    21.
 Leave Link  302 at Tue May  6 19:25:57 2025, MaxMem=  1048576000 cpu:               1.2 elap:               0.2
 (Enter /usr/license/gaussian16_new/rev_c01/avx2/g16/l303.exe)
 DipDrv:  MaxL=1.
 Leave Link  303 at Tue May  6 19:25:58 2025, MaxMem=  1048576000 cpu:               0.5 elap:               0.1
 (Enter /usr/license/gaussian16_new/rev_c01/avx2/g16/l308.exe)
 Leave Link  308 at Tue May  6 19:25:58 2025, MaxMem=  1048576000 cpu:               0.2 elap:               0.0
 (Enter /usr/license/gaussian16_new/rev_c01/avx2/g16/l401.exe)
 ExpMin= 8.36D-02 ExpMax= 2.89D+03 ExpMxC= 4.35D+02 IAcc=3 IRadAn=         5 AccDes= 0.00D+00
 Harris functional with IExCor= 4639 and IRadAn=       5 diagonalized for initial guess.
 HarFok:  IExCor= 4639 AccDes= 0.00D+00 IRadAn=         5 IDoV= 1 UseB2=F ITyADJ=14
 ICtDFT=  3500011 ScaDFX=  1.000000  1.000000  1.000000  1.000000
 FoFCou: FMM=F IPFlag=           0 FMFlag=      100000 FMFlg1=           0
         NFxFlg=           0 DoJE=T BraDBF=F KetDBF=T FulRan=T
         wScrn=  0.000000 ICntrl=       500 IOpCl=  0 I1Cent=   200000004 NGrid=           0
         NMat0=    1 NMatS0=      1 NMatT0=    0 NMatD0=    1 NMtDS0=    0 NMtDT0=    0
 Symmetry not used in FoFCou.
 Harris En= -653.386191382798    
 JPrj=0 DoOrth=F DoCkMO=F.
 Leave Link  401 at Tue May  6 19:25:59 2025, MaxMem=  1048576000 cpu:               5.5 elap:               0.7
 (Enter /usr/license/gaussian16_new/rev_c01/avx2/g16/l502.exe)
 Two-electron integral symmetry not used.
 Closed shell SCF:
 Using DIIS extrapolation, IDIIS=  1040.
 NGot=  1048576000 LenX=  1048451465 LenY=  1048390999
 Requested convergence on RMS density matrix=1.00D-08 within 128 cycles.
 Requested convergence on MAX density matrix=1.00D-06.
 Requested convergence on             energy=1.00D-06.
 No special actions if energy rises.
 Fock matrices will be formed incrementally for  20 cycles.
 Integral accuracy reduced to 1.0D-05 until final iterations.

 Cycle   1  Pass 0  IDiag  1:
 FoFJK:  IHMeth= 1 ICntrl=       0 DoSepK=T KAlg= 0 I1Cent=           0 FoldK=F
 IRaf=         1 NMat=       1 IRICut=       1 DoRegI=T DoRafI=F ISym2E= 0 IDoP0=0 IntGTp=1.
 FoFCou: FMM=F IPFlag=           0 FMFlag=      100000 FMFlg1=           0
         NFxFlg=           0 DoJE=T BraDBF=F KetDBF=F FulRan=T
         wScrn=  0.000000 ICntrl=       500 IOpCl=  0 I1Cent=           0 NGrid=           0
         NMat0=    1 NMatS0=      1 NMatT0=    0 NMatD0=    1 NMtDS0=    0 NMtDT0=    0
 Symmetry not used in FoFCou.
 E= -680.536132898247    
 DIIS: error= 5.27D-02 at cycle   1 NSaved=   1.
 NSaved= 1 IEnMin= 1 EnMin= -680.536132898247     IErMin= 1 ErrMin= 5.27D-02
 ErrMax= 5.27D-02  0.00D+00 EMaxC= 1.00D-01 BMatC= 4.23D-01 BMatP= 4.23D-01
 IDIUse=3 WtCom= 4.73D-01 WtEn= 5.27D-01
 Coeff-Com:  0.100D+01
 Coeff-En:   0.100D+01
 Coeff:      0.100D+01
 Gap=     0.224 Goal=   None    Shift=    0.000
 GapD=    0.224 DampG=1.000 DampE=0.500 DampFc=0.5000 IDamp=-1.
 Damping current iteration by 5.00D-01
 RMSDP=4.20D-03 MaxDP=1.01D-01              OVMax= 1.77D-01

 Cycle   2  Pass 0  IDiag  1:
 RMSU=  2.07D-03    CP:  9.85D-01
 E= -680.629815676718     Delta-E=       -0.093682778471 Rises=F Damp=T
 DIIS: error= 1.61D-02 at cycle   2 NSaved=   2.
 NSaved= 2 IEnMin= 2 EnMin= -680.629815676718     IErMin= 2 ErrMin= 1.61D-02
 ErrMax= 1.61D-02  0.00D+00 EMaxC= 1.00D-01 BMatC= 5.61D-02 BMatP= 4.23D-01
 IDIUse=3 WtCom= 8.39D-01 WtEn= 1.61D-01
 Coeff-Com: -0.116D+00 0.112D+01
 Coeff-En:   0.347D-01 0.965D+00
 Coeff:     -0.914D-01 0.109D+01
 Gap=     0.240 Goal=   None    Shift=    0.000
 RMSDP=1.63D-03 MaxDP=4.60D-02 DE=-9.37D-02 OVMax= 1.38D-01

 Cycle   3  Pass 0  IDiag  1:
 RMSU=  1.55D-03    CP:  9.71D-01  1.18D+00
 E= -680.729475119347     Delta-E=       -0.099659442629 Rises=F Damp=F
 DIIS: error= 7.55D-03 at cycle   3 NSaved=   3.
 NSaved= 3 IEnMin= 3 EnMin= -680.729475119347     IErMin= 3 ErrMin= 7.55D-03
 ErrMax= 7.55D-03  0.00D+00 EMaxC= 1.00D-01 BMatC= 1.37D-02 BMatP= 5.61D-02
 IDIUse=3 WtCom= 9.24D-01 WtEn= 7.55D-02
 Coeff-Com: -0.151D+00 0.363D+00 0.788D+00
 Coeff-En:   0.000D+00 0.000D+00 0.100D+01
 Coeff:     -0.140D+00 0.336D+00 0.804D+00
 Gap=     0.232 Goal=   None    Shift=    0.000
 RMSDP=6.38D-04 MaxDP=2.16D-02 DE=-9.97D-02 OVMax= 3.95D-02

 Cycle   4  Pass 0  IDiag  1:
 RMSU=  3.48D-04    CP:  9.69D-01  1.40D+00  8.19D-01
 E= -680.739269263945     Delta-E=       -0.009794144598 Rises=F Damp=F
 DIIS: error= 3.49D-03 at cycle   4 NSaved=   4.
 NSaved= 4 IEnMin= 4 EnMin= -680.739269263945     IErMin= 4 ErrMin= 3.49D-03
 ErrMax= 3.49D-03  0.00D+00 EMaxC= 1.00D-01 BMatC= 3.73D-03 BMatP= 1.37D-02
 IDIUse=3 WtCom= 9.65D-01 WtEn= 3.49D-02
 Coeff-Com: -0.711D-01 0.133D+00 0.459D+00 0.480D+00
 Coeff-En:   0.000D+00 0.000D+00 0.156D+00 0.844D+00
 Coeff:     -0.686D-01 0.128D+00 0.448D+00 0.492D+00
 Gap=     0.234 Goal=   None    Shift=    0.000
 RMSDP=2.16D-04 MaxDP=5.94D-03 DE=-9.79D-03 OVMax= 1.14D-02

 Cycle   5  Pass 0  IDiag  1:
 RMSU=  8.89D-05    CP:  9.68D-01  1.38D+00  9.04D-01  6.00D-01
 E= -680.742171296770     Delta-E=       -0.002902032825 Rises=F Damp=F
 DIIS: error= 3.20D-04 at cycle   5 NSaved=   5.
 NSaved= 5 IEnMin= 5 EnMin= -680.742171296770     IErMin= 5 ErrMin= 3.20D-04
 ErrMax= 3.20D-04  0.00D+00 EMaxC= 1.00D-01 BMatC= 2.20D-05 BMatP= 3.73D-03
 IDIUse=3 WtCom= 9.97D-01 WtEn= 3.20D-03
 Coeff-Com:  0.152D-01-0.320D-01-0.507D-01-0.829D-02 0.108D+01
 Coeff-En:   0.000D+00 0.000D+00 0.000D+00 0.000D+00 0.100D+01
 Coeff:      0.152D-01-0.319D-01-0.506D-01-0.826D-02 0.108D+01
 Gap=     0.235 Goal=   None    Shift=    0.000
 RMSDP=4.37D-05 MaxDP=1.10D-03 DE=-2.90D-03 OVMax= 3.20D-03

 Cycle   6  Pass 0  IDiag  1:
 RMSU=  2.58D-05    CP:  9.68D-01  1.38D+00  9.18D-01  6.55D-01  1.18D+00
 E= -680.742206522234     Delta-E=       -0.000035225464 Rises=F Damp=F
 DIIS: error= 1.16D-04 at cycle   6 NSaved=   6.
 NSaved= 6 IEnMin= 6 EnMin= -680.742206522234     IErMin= 6 ErrMin= 1.16D-04
 ErrMax= 1.16D-04  0.00D+00 EMaxC= 1.00D-01 BMatC= 2.71D-06 BMatP= 2.20D-05
 IDIUse=3 WtCom= 9.99D-01 WtEn= 1.16D-03
 Coeff-Com:  0.110D-01-0.217D-01-0.510D-01-0.439D-01 0.343D+00 0.763D+00
 Coeff-En:   0.000D+00 0.000D+00 0.000D+00 0.000D+00 0.000D+00 0.100D+01
 Coeff:      0.110D-01-0.216D-01-0.509D-01-0.438D-01 0.342D+00 0.763D+00
 Gap=     0.235 Goal=   None    Shift=    0.000
 RMSDP=1.29D-05 MaxDP=3.03D-04 DE=-3.52D-05 OVMax= 1.51D-03

 Cycle   7  Pass 0  IDiag  1:
 RMSU=  8.86D-06    CP:  9.68D-01  1.38D+00  9.22D-01  6.59D-01  1.26D+00
                    CP:  1.08D+00
 E= -680.742211321333     Delta-E=       -0.000004799099 Rises=F Damp=F
 DIIS: error= 3.07D-05 at cycle   7 NSaved=   7.
 NSaved= 7 IEnMin= 7 EnMin= -680.742211321333     IErMin= 7 ErrMin= 3.07D-05
 ErrMax= 3.07D-05  0.00D+00 EMaxC= 1.00D-01 BMatC= 4.52D-07 BMatP= 2.71D-06
 IDIUse=1 WtCom= 1.00D+00 WtEn= 0.00D+00
 Coeff-Com:  0.218D-02-0.401D-02-0.117D-01-0.164D-01-0.113D-01 0.276D+00
 Coeff-Com:  0.765D+00
 Coeff:      0.218D-02-0.401D-02-0.117D-01-0.164D-01-0.113D-01 0.276D+00
 Coeff:      0.765D+00
 Gap=     0.235 Goal=   None    Shift=    0.000
 RMSDP=5.57D-06 MaxDP=1.17D-04 DE=-4.80D-06 OVMax= 5.40D-04

 Initial convergence to 1.0D-05 achieved.  Increase integral accuracy.
 Cycle   8  Pass 1  IDiag  1:
 E= -680.742218154505     Delta-E=       -0.000006833172 Rises=F Damp=F
 DIIS: error= 1.34D-04 at cycle   1 NSaved=   1.
 NSaved= 1 IEnMin= 1 EnMin= -680.742218154505     IErMin= 1 ErrMin= 1.34D-04
 ErrMax= 1.34D-04  0.00D+00 EMaxC= 1.00D-01 BMatC= 7.79D-07 BMatP= 7.79D-07
 IDIUse=3 WtCom= 9.99D-01 WtEn= 1.34D-03
 Coeff-Com:  0.100D+01
 Coeff-En:   0.100D+01
 Coeff:      0.100D+01
 Gap=     0.235 Goal=   None    Shift=    0.000
 RMSDP=5.57D-06 MaxDP=1.17D-04 DE=-6.83D-06 OVMax= 3.54D-04

 Cycle   9  Pass 1  IDiag  1:
 RMSU=  7.00D-05    CP:  1.00D+00
 E= -680.742219082691     Delta-E=       -0.000000928185 Rises=F Damp=F
 DIIS: error= 1.15D-05 at cycle   2 NSaved=   2.
 NSaved= 2 IEnMin= 2 EnMin= -680.742219082691     IErMin= 2 ErrMin= 1.15D-05
 ErrMax= 1.15D-05  0.00D+00 EMaxC= 1.00D-01 BMatC= 4.75D-08 BMatP= 7.79D-07
 IDIUse=1 WtCom= 1.00D+00 WtEn= 0.00D+00
 Coeff-Com:  0.239D-01 0.976D+00
 Coeff:      0.239D-01 0.976D+00
 Gap=     0.235 Goal=   None    Shift=    0.000
 RMSDP=5.45D-06 MaxDP=1.19D-04 DE=-9.28D-07 OVMax= 1.63D-04

 Cycle  10  Pass 1  IDiag  1:
 RMSU=  2.55D-06    CP:  1.00D+00  1.07D+00
 E= -680.742219109601     Delta-E=       -0.000000026911 Rises=F Damp=F
 DIIS: error= 2.40D-05 at cycle   3 NSaved=   3.
 NSaved= 3 IEnMin= 3 EnMin= -680.742219109601     IErMin= 2 ErrMin= 1.15D-05
 ErrMax= 2.40D-05  0.00D+00 EMaxC= 1.00D-01 BMatC= 5.79D-08 BMatP= 4.75D-08
 IDIUse=1 WtCom= 1.00D+00 WtEn= 0.00D+00
 Coeff-Com: -0.460D-01 0.547D+00 0.499D+00
 Coeff:     -0.460D-01 0.547D+00 0.499D+00
 Gap=     0.235 Goal=   None    Shift=    0.000
 RMSDP=1.23D-06 MaxDP=2.82D-05 DE=-2.69D-08 OVMax= 9.48D-05

 Cycle  11  Pass 1  IDiag  1:
 RMSU=  7.99D-07    CP:  1.00D+00  1.08D+00  7.00D-01
 E= -680.742219175004     Delta-E=       -0.000000065403 Rises=F Damp=F
 DIIS: error= 3.58D-06 at cycle   4 NSaved=   4.
 NSaved= 4 IEnMin= 4 EnMin= -680.742219175004     IErMin= 4 ErrMin= 3.58D-06
 ErrMax= 3.58D-06  0.00D+00 EMaxC= 1.00D-01 BMatC= 8.26D-10 BMatP= 4.75D-08
 IDIUse=1 WtCom= 1.00D+00 WtEn= 0.00D+00
 Coeff-Com:  0.310D-02-0.120D+00-0.455D-01 0.116D+01
 Coeff:      0.310D-02-0.120D+00-0.455D-01 0.116D+01
 Gap=     0.235 Goal=   None    Shift=    0.000
 RMSDP=4.69D-07 MaxDP=7.42D-06 DE=-6.54D-08 OVMax= 7.32D-05

 Cycle  12  Pass 1  IDiag  1:
 RMSU=  2.53D-07    CP:  1.00D+00  1.08D+00  7.98D-01  1.37D+00
 E= -680.742219180309     Delta-E=       -0.000000005305 Rises=F Damp=F
 DIIS: error= 1.49D-06 at cycle   5 NSaved=   5.
 NSaved= 5 IEnMin= 5 EnMin= -680.742219180309     IErMin= 5 ErrMin= 1.49D-06
 ErrMax= 1.49D-06  0.00D+00 EMaxC= 1.00D-01 BMatC= 7.55D-10 BMatP= 8.26D-10
 IDIUse=1 WtCom= 1.00D+00 WtEn= 0.00D+00
 Coeff-Com:  0.117D-01-0.193D+00-0.136D+00 0.684D+00 0.633D+00
 Coeff:      0.117D-01-0.193D+00-0.136D+00 0.684D+00 0.633D+00
 Gap=     0.235 Goal=   None    Shift=    0.000
 RMSDP=2.23D-07 MaxDP=4.29D-06 DE=-5.30D-09 OVMax= 2.34D-05

 Cycle  13  Pass 1  IDiag  1:
 RMSU=  1.44D-07    CP:  1.00D+00  1.08D+00  8.35D-01  1.55D+00  1.10D+00
 E= -680.742219181584     Delta-E=       -0.000000001275 Rises=F Damp=F
 DIIS: error= 4.26D-07 at cycle   6 NSaved=   6.
 NSaved= 6 IEnMin= 6 EnMin= -680.742219181584     IErMin= 6 ErrMin= 4.26D-07
 ErrMax= 4.26D-07  0.00D+00 EMaxC= 1.00D-01 BMatC= 2.27D-11 BMatP= 7.55D-10
 IDIUse=1 WtCom= 1.00D+00 WtEn= 0.00D+00
 Coeff-Com:  0.292D-02-0.339D-01-0.293D-01 0.589D-02 0.124D+00 0.930D+00
 Coeff:      0.292D-02-0.339D-01-0.293D-01 0.589D-02 0.124D+00 0.930D+00
 Gap=     0.235 Goal=   None    Shift=    0.000
 RMSDP=7.82D-08 MaxDP=1.30D-06 DE=-1.27D-09 OVMax= 1.09D-05

 Cycle  14  Pass 1  IDiag  1:
 RMSU=  2.76D-08    CP:  1.00D+00  1.08D+00  8.43D-01  1.60D+00  1.26D+00
                    CP:  1.22D+00
 E= -680.742219181683     Delta-E=       -0.000000000100 Rises=F Damp=F
 DIIS: error= 1.03D-07 at cycle   7 NSaved=   7.
 NSaved= 7 IEnMin= 7 EnMin= -680.742219181683     IErMin= 7 ErrMin= 1.03D-07
 ErrMax= 1.03D-07  0.00D+00 EMaxC= 1.00D-01 BMatC= 4.52D-12 BMatP= 2.27D-11
 IDIUse=1 WtCom= 1.00D+00 WtEn= 0.00D+00
 Coeff-Com: -0.319D-03 0.897D-02 0.557D-02-0.584D-01-0.360D-01 0.291D+00
 Coeff-Com:  0.789D+00
 Coeff:     -0.319D-03 0.897D-02 0.557D-02-0.584D-01-0.360D-01 0.291D+00
 Coeff:      0.789D+00
 Gap=     0.235 Goal=   None    Shift=    0.000
 RMSDP=1.82D-08 MaxDP=4.79D-07 DE=-9.98D-11 OVMax= 1.53D-06

 Cycle  15  Pass 1  IDiag  1:
 RMSU=  1.10D-08    CP:  1.00D+00  1.08D+00  8.43D-01  1.61D+00  1.30D+00
                    CP:  1.29D+00  1.02D+00
 E= -680.742219181693     Delta-E=       -0.000000000010 Rises=F Damp=F
 DIIS: error= 3.72D-08 at cycle   8 NSaved=   8.
 NSaved= 8 IEnMin= 8 EnMin= -680.742219181693     IErMin= 8 ErrMin= 3.72D-08
 ErrMax= 3.72D-08  0.00D+00 EMaxC= 1.00D-01 BMatC= 4.83D-13 BMatP= 4.52D-12
 IDIUse=1 WtCom= 1.00D+00 WtEn= 0.00D+00
 Coeff-Com: -0.414D-03 0.639D-02 0.498D-02-0.209D-01-0.299D-01-0.214D-02
 Coeff-Com:  0.240D+00 0.802D+00
 Coeff:     -0.414D-03 0.639D-02 0.498D-02-0.209D-01-0.299D-01-0.214D-02
 Coeff:      0.240D+00 0.802D+00
 Gap=     0.235 Goal=   None    Shift=    0.000
 RMSDP=6.94D-09 MaxDP=1.31D-07 DE=-9.78D-12 OVMax= 6.94D-07

 SCF Done:  E(RwB97XD) =  -680.742219182     A.U. after   15 cycles
            NFock= 15  Conv=0.69D-08     -V/T= 2.0072
 KE= 6.759041808755D+02 PE=-3.321998687343D+03 EE= 1.100028569434D+03
 Leave Link  502 at Tue May  6 19:26:19 2025, MaxMem=  1048576000 cpu:             163.5 elap:              20.6
 (Enter /usr/license/gaussian16_new/rev_c01/avx2/g16/l801.exe)
 DoSCS=F DFT=T ScalE2(SS,OS)=  1.000000  1.000000
 ExpMin= 8.36D-02 ExpMax= 2.89D+03 ExpMxC= 4.35D+02 IAcc=3 IRadAn=         5 AccDes= 0.00D+00
 HarFok:  IExCor=  205 AccDes= 0.00D+00 IRadAn=         5 IDoV=-2 UseB2=F ITyADJ=14
 ICtDFT= 12500011 ScaDFX=  1.000000  1.000000  1.000000  1.000000
 Largest valence mixing into a core orbital is  1.10D-04
 Largest core mixing into a valence orbital is  5.04D-05
 Range of M.O.s used for correlation:    15   231
 NBasis=   231 NAE=    49 NBE=    49 NFC=    14 NFV=     0
 NROrb=    217 NOA=    35 NOB=    35 NVA=   182 NVB=   182

 **** Warning!!: The largest alpha MO coefficient is  0.10180235D+02

 Leave Link  801 at Tue May  6 19:26:20 2025, MaxMem=  1048576000 cpu:               1.1 elap:               0.2
 (Enter /usr/license/gaussian16_new/rev_c01/avx2/g16/l914.exe)
 RHF ground state
 Two-electron integral symmetry not used.
 MDV=  1048576000 DFT=T DoStab=F Mixed=T DoRPA=F DoScal=F NonHer=F
 Making orbital integer symmetry assigments:
     4 initial guesses have been made.
 Convergence on wavefunction:    0.000001000000000
 Davidson Disk Diagonalization:  ConvIn= 1.00D-06 SkipCon=T Conv= 1.00D-06.
 Max sub-space:  2000 roots to seek:     4 dimension of matrix:        12740
 Iteration     1 Dimension     4 NMult     0 NNew      4
 CISAX will form     4 AO SS matrices at one time.
 NMat=     4 NSing=     4 JSym2X= 0.
 FoFJK:  IHMeth= 1 ICntrl=       0 DoSepK=T KAlg= 0 I1Cent=           0 FoldK=F
 IRaf=         1 NMat=       8 IRICut=       1 DoRegI=T DoRafI=F ISym2E= 0 IDoP0=0 IntGTp=1.
 FoFCou: FMM=F IPFlag=           0 FMFlag=      100000 FMFlg1=           0
         NFxFlg=           0 DoJE=F BraDBF=F KetDBF=F FulRan=T
         wScrn=  0.000000 ICntrl=       500 IOpCl=  0 I1Cent=           0 NGrid=           0
         NMat0=    4 NMatS0=      4 NMatT0=    0 NMatD0=    4 NMtDS0=    0 NMtDT0=    0
 Symmetry not used in FoFCou.
 Excitation Energies [eV] at current iteration:
 Root      1 :     4.152454144671050
 Root      2 :     4.742609888416056
 Root      3 :     4.913927797483116
 Root      4 :     7.228841783718347
 Iteration     2 Dimension     8 NMult     4 NNew      4
 CISAX will form     4 AO SS matrices at one time.
 NMat=     4 NSing=     4 JSym2X= 0.
 Root      1 not converged, maximum delta is    0.181052986507536
 Excitation Energies [eV] at current iteration:
 Root      1 :     3.527405758589279   Change is   -0.625048386081771
 Root      2 :     4.182735217945325   Change is   -0.559874670470731
 Root      3 :     4.443800933805108   Change is   -0.470126863678008
 Root      4 :     6.067321601467234   Change is   -1.161520182251113
 Iteration     3 Dimension     9 NMult     8 NNew      1
 CISAX will form     1 AO SS matrices at one time.
 NMat=     1 NSing=     1 JSym2X= 0.
 Root      1 not converged, maximum delta is    0.021431939014577
 Excitation Energies [eV] at current iteration:
 Root      1 :     3.484261510581212   Change is   -0.043144248008067
 Iteration     4 Dimension    10 NMult     9 NNew      1
 CISAX will form     1 AO SS matrices at one time.
 NMat=     1 NSing=     1 JSym2X= 0.
 Root      1 not converged, maximum delta is    0.004610028535940
 Excitation Energies [eV] at current iteration:
 Root      1 :     3.481640747782140   Change is   -0.002620762799071
 Iteration     5 Dimension    11 NMult    10 NNew      1
 CISAX will form     1 AO SS matrices at one time.
 NMat=     1 NSing=     1 JSym2X= 0.
 Root      1 not converged, maximum delta is    0.000934827140155
 Excitation Energies [eV] at current iteration:
 Root      1 :     3.481454778495746   Change is   -0.000185969286394
 Iteration     6 Dimension    12 NMult    11 NNew      1
 CISAX will form     1 AO SS matrices at one time.
 NMat=     1 NSing=     1 JSym2X= 0.
 Root      1 not converged, maximum delta is    0.000366328031473
 Excitation Energies [eV] at current iteration:
 Root      1 :     3.481439107695030   Change is   -0.000015670800716
 Iteration     7 Dimension    13 NMult    12 NNew      1
 CISAX will form     1 AO SS matrices at one time.
 NMat=     1 NSing=     1 JSym2X= 0.
 Root      1 not converged, maximum delta is    0.000160655696251
 Excitation Energies [eV] at current iteration:
 Root      1 :     3.481437519487947   Change is   -0.000001588207084
 Iteration     8 Dimension    14 NMult    13 NNew      1
 CISAX will form     1 AO SS matrices at one time.
 NMat=     1 NSing=     1 JSym2X= 0.
 Root      1 not converged, maximum delta is    0.000067806271285
 Excitation Energies [eV] at current iteration:
 Root      1 :     3.481437312679029   Change is   -0.000000206808918
 Iteration     9 Dimension    15 NMult    14 NNew      1
 CISAX will form     1 AO SS matrices at one time.
 NMat=     1 NSing=     1 JSym2X= 0.
 Root      1 not converged, maximum delta is    0.000046827639791
 Excitation Energies [eV] at current iteration:
 Root      1 :     3.481437274016896   Change is   -0.000000038662133
 Iteration    10 Dimension    16 NMult    15 NNew      1
 CISAX will form     1 AO SS matrices at one time.
 NMat=     1 NSing=     1 JSym2X= 0.
 Root      1 not converged, maximum delta is    0.000017862270025
 Excitation Energies [eV] at current iteration:
 Root      1 :     3.481437268550057   Change is   -0.000000005466839
 Iteration    11 Dimension    17 NMult    16 NNew      1
 CISAX will form     1 AO SS matrices at one time.
 NMat=     1 NSing=     1 JSym2X= 0.
 Root      1 not converged, maximum delta is    0.000002653610915
 Excitation Energies [eV] at current iteration:
 Root      1 :     3.481437268117621   Change is   -0.000000000432436
 Iteration    12 Dimension    18 NMult    17 NNew      1
 CISAX will form     1 AO SS matrices at one time.
 NMat=     1 NSing=     1 JSym2X= 0.
 Root      1 has converged.
 Excitation Energies [eV] at current iteration:
 Root      1 :     3.481437268069864   Change is   -0.000000000047757
 Convergence achieved on expansion vectors.
 ***********************************************************************
 Excited states from <AA,BB:AA,BB> singles matrix:
 ***********************************************************************
 
 1PDM for each excited state written to RWF  633
 Ground to excited state transition densities written to RWF  633
 Ground to excited state transition electric dipole moments (Au):
       state          X           Y           Z        Dip. S.      Osc.
         1        -0.7695     -0.4459     -2.7072      8.1199      0.6926
 Ground to excited state transition velocity dipole moments (Au):
       state          X           Y           Z        Dip. S.      Osc.
         1        -0.0062     -0.0045     -0.0106      0.0002      0.0009
 Ground to excited state transition magnetic dipole moments (Au):
       state          X           Y           Z
         1         0.7822     -1.1317     -0.0026
 Ground to excited state transition velocity quadrupole moments (Au):
       state          XX          YY          ZZ          XY          XZ          YZ
         1         0.2019      0.0575     -0.6692      0.1148      0.1966      0.1286
 <0|del|b> * <b|rxdel|0> + <0|del|b> * <b|delr+rdel|0>
 Rotatory Strengths (R) in cgs (10**-40 erg-esu-cm/Gauss)
       state          XX          YY          ZZ    R(velocity)    E-M Angle
         1        13.2896    -12.2227      0.4277      0.4982       89.14
 1/2[<0|r|b>*<b|rxdel|0> + (<0|rxdel|b>*<b|r|0>)*]
 Rotatory Strengths (R) in cgs (10**-40 erg-esu-cm/Gauss)
       state          XX          YY          ZZ     R(length)
         1       425.6391   -356.8782     -5.0732     21.2292
  1/2[<0|del|b>*<b|r|0> + (<0|r|b>*<b|del|0>)*] (Au)
       state          X           Y           Z        Dip. S.   Osc.(frdel)
         1         0.0048      0.0020      0.0288     -0.0356     -0.0237

 Excitation energies and oscillator strengths:
 
 Excited state symmetry could not be determined.
 Excited State   1:      Singlet-?Sym    3.4814 eV  356.13 nm  f=0.6926  <S**2>=0.000
      48 -> 50         0.23974
      49 -> 50         0.64196
 This state for optimization and/or second-order correction.
 Total Energy, E(CIS/TDA) =  -680.614278716    
 Copying the excited state density for this state as the 1-particle RhoCI density.
 SavETr:  write IOETrn=   770 NScale= 10 NData=  16 NLR=1 NState=    1 LETran=      28.
 The selected state is a singlet.
 CISGrd: IGrad=1 NXY=1 DFT=T
 CISAX will form     1 AO SS matrices at one time.
 NMat=     1 NSing=     1 JSym2X= 0.
 Leave Link  914 at Tue May  6 19:27:05 2025, MaxMem=  1048576000 cpu:             358.0 elap:              45.2
 (Enter /usr/license/gaussian16_new/rev_c01/avx2/g16/l1002.exe)
 Minotr:  Closed shell wavefunction.
          Computing CIS/TDA/TD derivatives.
          Using Z-Vector for PSCF gradient.
          Skipping F1 and S1 gradient terms here.
          Frozen-core window.
          Direct CPHF calculation.
          Differentiating once with respect to electric field.
                with respect to dipole field.
          Electric field/nuclear overlap derivatives assumed to be zero.
          Requested convergence is 1.0D-10 RMS, and 1.0D-09 maximum.
          NewPWx=F KeepS1=T KeepF1=T KeepIn=T MapXYZ=F SortEE=F KeepMc=T.
 Two-electron integral symmetry not used.
          MDV=    1048576000 using IRadAn=       5.
          Solving linear equations separately, MaxMat=     384.
          There are     1 degrees of freedom in the 1st order CPHF.  IDoFFX=0 NUNeed=     1.
 FoFJK:  IHMeth= 1 ICntrl=       0 DoSepK=T KAlg= 0 I1Cent=           0 FoldK=F
 IRaf=         1 NMat=       1 IRICut=       1 DoRegI=T DoRafI=F ISym2E= 0 IDoP0=0 IntGTp=1.
 FoFCou: FMM=F IPFlag=           0 FMFlag=      100000 FMFlg1=           0
         NFxFlg=           0 DoJE=T BraDBF=F KetDBF=F FulRan=T
         wScrn=  0.000000 ICntrl=       500 IOpCl=  0 I1Cent=           0 NGrid=           0
         NMat0=    1 NMatS0=      1 NMatT0=    0 NMatD0=    1 NMtDS0=    0 NMtDT0=    0
 Symmetry not used in FoFCou.
 LinEq1:  Iter=  0 NonCon=     1 RMS=6.59D-03 Max=4.10D-01 NDo=     1
 AX will form     1 AO Fock derivatives at one time.
 LinEq1:  Iter=  1 NonCon=     1 RMS=3.20D-03 Max=1.60D-01 NDo=     1
 LinEq1:  Iter=  2 NonCon=     1 RMS=1.15D-03 Max=3.99D-02 NDo=     1
 LinEq1:  Iter=  3 NonCon=     1 RMS=4.77D-04 Max=1.76D-02 NDo=     1
 LinEq1:  Iter=  4 NonCon=     1 RMS=1.50D-04 Max=3.29D-03 NDo=     1
 LinEq1:  Iter=  5 NonCon=     1 RMS=8.17D-05 Max=3.54D-03 NDo=     1
 LinEq1:  Iter=  6 NonCon=     1 RMS=4.40D-05 Max=1.38D-03 NDo=     1
 LinEq1:  Iter=  7 NonCon=     1 RMS=2.18D-05 Max=5.18D-04 NDo=     1
 LinEq1:  Iter=  8 NonCon=     1 RMS=1.11D-05 Max=5.69D-04 NDo=     1
 LinEq1:  Iter=  9 NonCon=     1 RMS=4.62D-06 Max=1.21D-04 NDo=     1
 LinEq1:  Iter= 10 NonCon=     1 RMS=1.85D-06 Max=6.62D-05 NDo=     1
 LinEq1:  Iter= 11 NonCon=     1 RMS=1.18D-06 Max=3.73D-05 NDo=     1
 LinEq1:  Iter= 12 NonCon=     1 RMS=3.80D-07 Max=7.39D-06 NDo=     1
 LinEq1:  Iter= 13 NonCon=     1 RMS=1.67D-07 Max=3.80D-06 NDo=     1
 LinEq1:  Iter= 14 NonCon=     1 RMS=6.82D-08 Max=1.64D-06 NDo=     1
 LinEq1:  Iter= 15 NonCon=     1 RMS=2.44D-08 Max=5.58D-07 NDo=     1
 LinEq1:  Iter= 16 NonCon=     1 RMS=1.09D-08 Max=3.34D-07 NDo=     1
 LinEq1:  Iter= 17 NonCon=     1 RMS=4.40D-09 Max=6.55D-08 NDo=     1
 LinEq1:  Iter= 18 NonCon=     1 RMS=1.57D-09 Max=3.13D-08 NDo=     1
 LinEq1:  Iter= 19 NonCon=     1 RMS=8.49D-10 Max=2.85D-08 NDo=     1
 LinEq1:  Iter= 20 NonCon=     1 RMS=3.27D-10 Max=7.90D-09 NDo=     1
 LinEq1:  Iter= 21 NonCon=     1 RMS=8.12D-11 Max=1.62D-09 NDo=     1
 LinEq1:  Iter= 22 NonCon=     0 RMS=2.41D-11 Max=4.75D-10 NDo=     1
 Linear equations converged to 1.000D-10 1.000D-09 after    22 iterations.
 End of Minotr F.D. properties file   721 does not exist.
 End of Minotr F.D. properties file   722 does not exist.
 End of Minotr F.D. properties file   788 does not exist.
 Leave Link 1002 at Tue May  6 19:28:01 2025, MaxMem=  1048576000 cpu:             439.0 elap:              55.3
 (Enter /usr/license/gaussian16_new/rev_c01/avx2/g16/l601.exe)
 Copying SCF densities to generalized density rwf, IOpCl= 0 IROHF=0.

 **********************************************************************

            Population analysis using the CI Density.

 **********************************************************************

 Alpha  occ. eigenvalues --  -24.76404 -24.76300 -14.50291 -14.49590 -10.36481
 Alpha  occ. eigenvalues --  -10.36046 -10.36025 -10.35644 -10.35410 -10.33061
 Alpha  occ. eigenvalues --  -10.32502 -10.31246 -10.30710  -6.94917  -1.25109
 Alpha  occ. eigenvalues --   -1.21570  -1.10834  -1.09055  -0.94081  -0.91432
 Alpha  occ. eigenvalues --   -0.90059  -0.85327  -0.80367  -0.73418  -0.71628
 Alpha  occ. eigenvalues --   -0.71238  -0.70119  -0.67084  -0.65396  -0.60826
 Alpha  occ. eigenvalues --   -0.57907  -0.57648  -0.56536  -0.55620  -0.54959
 Alpha  occ. eigenvalues --   -0.53401  -0.52901  -0.52336  -0.51562  -0.51112
 Alpha  occ. eigenvalues --   -0.49967  -0.46692  -0.46451  -0.44654  -0.44117
 Alpha  occ. eigenvalues --   -0.40821  -0.37128  -0.36008  -0.30711
 Alpha virt. eigenvalues --   -0.07213   0.07388   0.09506   0.11874   0.15017
 Alpha virt. eigenvalues --    0.16262   0.16985   0.17646   0.19617   0.19736
 Alpha virt. eigenvalues --    0.21353   0.22540   0.23269   0.24233   0.24593
 Alpha virt. eigenvalues --    0.27750   0.28924   0.29055   0.29771   0.32304
 Alpha virt. eigenvalues --    0.35083   0.35444   0.38818   0.39475   0.40751
 Alpha virt. eigenvalues --    0.43674   0.44793   0.45621   0.47905   0.48211
 Alpha virt. eigenvalues --    0.49312   0.49338   0.49632   0.50329   0.50845
 Alpha virt. eigenvalues --    0.53116   0.54039   0.54674   0.54843   0.57937
 Alpha virt. eigenvalues --    0.58220   0.58879   0.59835   0.60513   0.64587
 Alpha virt. eigenvalues --    0.64649   0.66605   0.67455   0.72018   0.73833
 Alpha virt. eigenvalues --    0.74765   0.75226   0.75968   0.76957   0.77642
 Alpha virt. eigenvalues --    0.78187   0.79216   0.80526   0.80640   0.81331
 Alpha virt. eigenvalues --    0.83610   0.83730   0.85420   0.87958   0.89150
 Alpha virt. eigenvalues --    0.95501   0.95745   0.96302   1.01794   1.04186
 Alpha virt. eigenvalues --    1.05611   1.08729   1.11390   1.14575   1.15486
 Alpha virt. eigenvalues --    1.20498   1.22367   1.22481   1.24147   1.25665
 Alpha virt. eigenvalues --    1.26054   1.27285   1.30440   1.30932   1.32112
 Alpha virt. eigenvalues --    1.34298   1.34523   1.36614   1.38944   1.39648
 Alpha virt. eigenvalues --    1.42711   1.43339   1.45091   1.46958   1.47570
 Alpha virt. eigenvalues --    1.55287   1.57845   1.60622   1.61458   1.63583
 Alpha virt. eigenvalues --    1.69213   1.70256   1.71792   1.73051   1.73920
 Alpha virt. eigenvalues --    1.75044   1.75599   1.78926   1.79680   1.80023
 Alpha virt. eigenvalues --    1.82437   1.84639   1.86581   1.88211   1.91788
 Alpha virt. eigenvalues --    1.92433   1.94689   1.95130   1.98142   2.00454
 Alpha virt. eigenvalues --    2.02490   2.05363   2.05581   2.06767   2.08387
 Alpha virt. eigenvalues --    2.08843   2.10789   2.12868   2.14653   2.16619
 Alpha virt. eigenvalues --    2.20896   2.22276   2.22854   2.27880   2.28383
 Alpha virt. eigenvalues --    2.32983   2.35271   2.35756   2.36881   2.39335
 Alpha virt. eigenvalues --    2.41495   2.42642   2.44377   2.50642   2.55972
 Alpha virt. eigenvalues --    2.63931   2.65682   2.67664   2.69259   2.72920
 Alpha virt. eigenvalues --    2.74592   2.77501   2.78815   2.80462   2.81051
 Alpha virt. eigenvalues --    2.85077   2.87379   2.99566   3.00540   3.06717
 Alpha virt. eigenvalues --    3.09289   3.12242   3.13231   3.15631   3.19216
 Alpha virt. eigenvalues --    3.19614   3.19857   3.23325   3.24239   3.26289
 Alpha virt. eigenvalues --    3.37692   3.40187   3.45533   3.49616   3.54514
 Alpha virt. eigenvalues --    3.60967   3.63797   3.73216   3.81824   3.84224
 Alpha virt. eigenvalues --    3.84582   3.90225
          Condensed to atoms (all electrons):
               1          2          3          4          5          6
     1  N    6.417318  -0.035829   0.429165  -0.042427  -0.099458   0.385253
     2  N   -0.035829   6.416676  -0.000514  -0.000039  -0.000483  -0.006725
     3  C    0.429165  -0.000514   4.784212   0.323220   0.013224  -0.150267
     4  C   -0.042427  -0.000039   0.323220   4.969406   0.302318   0.031623
     5  C   -0.099458  -0.000483   0.013224   0.302318   5.116405   0.317833
     6  C    0.385253  -0.006725  -0.150267   0.031623   0.317833   5.168629
     7  C   -0.065528  -0.067168   0.009600   0.020184  -0.116401   0.270152
     8  C   -0.009816   0.387791   0.000834  -0.001498   0.015436   0.032461
     9  C   -0.000533  -0.101828   0.000033  -0.000003   0.000046   0.013284
    10  C   -0.000010  -0.041775  -0.000001   0.000000  -0.000002  -0.001245
    11  C   -0.000599   0.436485   0.000072  -0.000001   0.000032   0.000686
    12  B    0.289530   0.284771  -0.015510   0.000039   0.001098  -0.049506
    13  F   -0.035962  -0.035352  -0.002136  -0.000165  -0.000037  -0.002675
    14  F   -0.033513  -0.033664   0.001505   0.000257  -0.000083  -0.002680
    15  H    0.007513   0.006829  -0.000682   0.000923  -0.025095  -0.038185
    16  H    0.000233  -0.038551   0.000004  -0.000000  -0.000001   0.000060
    17  H    0.006005  -0.000012   0.016634  -0.073569   0.487194  -0.066408
    18  H    0.005606   0.000003  -0.072953   0.484988  -0.071675   0.017449
    19  H    0.000003   0.005983   0.000000   0.000000  -0.000000   0.000008
    20  H   -0.034272   0.000194   0.454138  -0.074453   0.014357   0.002811
    21  H   -0.000015   0.006518  -0.000000   0.000000   0.000005   0.000024
               7          8          9         10         11         12
     1  N   -0.065528  -0.009816  -0.000533  -0.000010  -0.000599   0.289530
     2  N   -0.067168   0.387791  -0.101828  -0.041775   0.436485   0.284771
     3  C    0.009600   0.000834   0.000033  -0.000001   0.000072  -0.015510
     4  C    0.020184  -0.001498  -0.000003   0.000000  -0.000001   0.000039
     5  C   -0.116401   0.015436   0.000046  -0.000002   0.000032   0.001098
     6  C    0.270152   0.032461   0.013284  -0.001245   0.000686  -0.049506
     7  C    5.226930   0.236824  -0.121080   0.022865   0.007815  -0.006943
     8  C    0.236824   5.159979   0.359898   0.024043  -0.144701  -0.048356
     9  C   -0.121080   0.359898   5.145974   0.279309   0.007847   0.001418
    10  C    0.022865   0.024043   0.279309   4.971396   0.348030  -0.000250
    11  C    0.007815  -0.144701   0.007847   0.348030   4.676299  -0.016046
    12  B   -0.006943  -0.048356   0.001418  -0.000250  -0.016046   3.429818
    13  F    0.001300  -0.002674  -0.000005  -0.000236  -0.001513   0.468717
    14  F    0.001411  -0.002574  -0.000098   0.000260   0.001226   0.450086
    15  H    0.460379  -0.058938  -0.020646   0.000499  -0.000461   0.002589
    16  H   -0.001135   0.000050   0.021408  -0.086136   0.453418   0.000108
    17  H   -0.014609  -0.000003  -0.000002   0.000000  -0.000000   0.000396
    18  H   -0.000605   0.000008  -0.000000   0.000000   0.000000   0.000240
    19  H   -0.000564   0.016263  -0.082590   0.488836  -0.064422   0.000259
    20  H   -0.000734   0.000037  -0.000001   0.000000   0.000005   0.000467
    21  H   -0.017605  -0.042283   0.463613  -0.073695   0.012637   0.000349
              13         14         15         16         17         18
     1  N   -0.035962  -0.033513   0.007513   0.000233   0.006005   0.005606
     2  N   -0.035352  -0.033664   0.006829  -0.038551  -0.000012   0.000003
     3  C   -0.002136   0.001505  -0.000682   0.000004   0.016634  -0.072953
     4  C   -0.000165   0.000257   0.000923  -0.000000  -0.073569   0.484988
     5  C   -0.000037  -0.000083  -0.025095  -0.000001   0.487194  -0.071675
     6  C   -0.002675  -0.002680  -0.038185   0.000060  -0.066408   0.017449
     7  C    0.001300   0.001411   0.460379  -0.001135  -0.014609  -0.000605
     8  C   -0.002674  -0.002574  -0.058938   0.000050  -0.000003   0.000008
     9  C   -0.000005  -0.000098  -0.020646   0.021408  -0.000002  -0.000000
    10  C   -0.000236   0.000260   0.000499  -0.086136   0.000000   0.000000
    11  C   -0.001513   0.001226  -0.000461   0.453418  -0.000000   0.000000
    12  B    0.468717   0.450086   0.002589   0.000108   0.000396   0.000240
    13  F    8.859712  -0.026865  -0.000000  -0.000086   0.000001   0.000002
    14  F   -0.026865   8.871141   0.000006   0.001804   0.000001   0.000001
    15  H   -0.000000   0.000006   0.756757   0.000013   0.002021   0.000017
    16  H   -0.000086   0.001804   0.000013   0.766255  -0.000000  -0.000000
    17  H    0.000001   0.000001   0.002021  -0.000000   0.714349  -0.010602
    18  H    0.000002   0.000001   0.000017  -0.000000  -0.010602   0.696855
    19  H    0.000001   0.000001   0.000006  -0.010017  -0.000000  -0.000000
    20  H    0.000430   0.000775   0.000012   0.000001  -0.000323  -0.006219
    21  H    0.000001   0.000001   0.002774  -0.000369  -0.000001  -0.000000
              19         20         21
     1  N    0.000003  -0.034272  -0.000015
     2  N    0.005983   0.000194   0.006518
     3  C    0.000000   0.454138  -0.000000
     4  C    0.000000  -0.074453   0.000000
     5  C   -0.000000   0.014357   0.000005
     6  C    0.000008   0.002811   0.000024
     7  C   -0.000564  -0.000734  -0.017605
     8  C    0.016263   0.000037  -0.042283
     9  C   -0.082590  -0.000001   0.463613
    10  C    0.488836   0.000000  -0.073695
    11  C   -0.064422   0.000005   0.012637
    12  B    0.000259   0.000467   0.000349
    13  F    0.000001   0.000430   0.000001
    14  F    0.000001   0.000775   0.000001
    15  H    0.000006   0.000012   0.002774
    16  H   -0.010017   0.000001  -0.000369
    17  H   -0.000000  -0.000323  -0.000001
    18  H   -0.000000  -0.006219  -0.000000
    19  H    0.704918  -0.000000  -0.006800
    20  H   -0.000000   0.659637  -0.000000
    21  H   -0.006800  -0.000000   0.676530
 Mulliken charges:
               1
     1  N   -0.182664
     2  N   -0.183313
     3  C    0.209421
     4  C    0.059196
     5  C    0.045289
     6  C    0.077415
     7  C    0.154912
     8  C    0.077219
     9  C    0.033956
    10  C    0.068111
    11  C    0.283193
    12  B    0.206726
    13  F   -0.222460
    14  F   -0.228998
    15  H   -0.096329
    16  H   -0.107058
    17  H   -0.061071
    18  H   -0.043113
    19  H   -0.051885
    20  H   -0.016863
    21  H   -0.021684
 Sum of Mulliken charges =  -0.00000
 Mulliken charges with hydrogens summed into heavy atoms:
               1
     1  N   -0.182664
     2  N   -0.183313
     3  C    0.192558
     4  C    0.016083
     5  C   -0.015783
     6  C    0.077415
     7  C    0.058583
     8  C    0.077219
     9  C    0.012273
    10  C    0.016226
    11  C    0.176134
    12  B    0.206726
    13  F   -0.222460
    14  F   -0.228998
 Electronic spatial extent (au):  <R**2>=          37718.5797
 Charge=             -0.0000 electrons
 Dipole moment (field-independent basis, Debye):
    X=              3.3032    Y=              3.4488    Z=             -1.2986  Tot=              4.9489
 Quadrupole moment (field-independent basis, Debye-Ang):
   XX=            -83.8463   YY=            -58.4707   ZZ=            -83.9984
   XY=             12.4420   XZ=             38.0296   YZ=             30.7666
 Traceless Quadrupole moment (field-independent basis, Debye-Ang):
   XX=             -8.4079   YY=             16.9678   ZZ=             -8.5599
   XY=             12.4420   XZ=             38.0296   YZ=             30.7666
 Octapole moment (field-independent basis, Debye-Ang**2):
  XXX=            219.3101  YYY=           -721.2229  ZZZ=          -2015.7337  XYY=            124.8964
  XXY=           -285.9490  XXZ=           -806.7292  XZZ=            471.8645  YZZ=             69.5686
  YYZ=           -547.2765  XYZ=            134.7917
 Hexadecapole moment (field-independent basis, Debye-Ang**3):
 XXXX=          -1060.2391 YYYY=          -5698.5070 ZZZZ=         -37202.4360 XXXY=            576.0943
 XXXZ=           1954.9031 YYYX=            790.9142 YYYZ=          -6819.6561 ZZZX=           5851.3757
 ZZZY=          -3360.0035 XXYY=          -1215.6942 XXZZ=          -8195.4018 YYZZ=          -6211.8637
 XXYZ=          -2748.1864 YYXZ=           1170.3166 ZZXY=           1581.3374
 N-N= 8.653237178517D+02 E-N=-3.321864144533D+03  KE= 6.760526135943D+02
 No NMR shielding tensors so no spin-rotation constants.
 Leave Link  601 at Tue May  6 19:28:01 2025, MaxMem=  1048576000 cpu:               0.5 elap:               0.1
 (Enter /usr/license/gaussian16_new/rev_c01/avx2/g16/l9999.exe)
 Electronic transition elements 
                 1 
      1  -0.680614D+03
      2  -0.769521D+00
      3  -0.445938D+00
      4  -0.270719D+01
      5  -0.622815D-02
      6  -0.451865D-02
      7  -0.106372D-01
      8   0.782167D+00
      9  -0.113168D+01
     10  -0.264997D-02
     11   0.201942D+00
     12   0.575295D-01
     13  -0.669188D+00
     14   0.114836D+00
     15   0.196603D+00
     16   0.128600D+00

 Test job not archived.
 1\1\GINC-TELLURIUM3\SP\RwB97XD TDA-FC\def2SVP\C9H7B1F2N2\PITESA\06-May
 -2025\0\\#p nosym unit=AU wb97xd def2svp tda(nstates=1,singlets,root=1
 ,conver=6) density=Current GFINPUT charge\\SHARC-GAUSSIAN job\\0,1\N,0
 ,-0.7993970006,3.4420070024,10.6968230076\N,0,-1.4959940011,3.06564100
 22,8.3205540059\C,0,-0.7577660005,3.5154570025,12.0486210086\C,0,0.274
 8730002,4.3340420031,12.4794030089\C,0,0.9324610007,4.7899370034,11.34
 08960081\C,0,0.2503890002,4.235771003,10.2259020073\C,0,0.4476960003,4
 .4009060031,8.8515990063\C,0,-0.4070910003,3.8457280027,7.9058950056\C
 ,0,-0.4737770003,3.9439980028,6.4946440046\C,0,-1.5583930011,3.2530640
 023,6.0554650043\C,0,-2.1823780016,2.7222000019,7.2173160051\B,0,-1.76
 46910013,2.6219030019,9.793609007\F,0,-1.5099840011,1.2581690009,9.939
 2180071\F,0,-3.0937690022,2.875178002,10.1397460072\H,0,1.1235600008,4
 .9844520035,8.5954810061\H,0,-2.9186980021,2.2186890016,7.2317590051\H
 ,0,1.6745440012,5.3998230038,11.3615540081\H,0,0.5366570004,4.53868800
 32,13.3853040095\H,0,-1.8827850013,3.1406100022,5.1626630037\H,0,-1.33
 9428001,2.9379900021,12.5690860089\H,0,0.1943640001,4.5184260032,5.987
 2780043\\Version=ES64L-G16RevC.01\HF=-680.7422192\RMSD=6.944e-09\Dipol
 e=1.2995762,1.3568458,-0.5109063\Quadrupole=-6.2510378,12.6151477,-6.3
 641099,9.2503499,28.2740981,22.8742164\PG=C01 [X(C9H7B1F2N2)]\\@


 BULLDOZER: SOMEONE WHO SLEEPS THROUGH SPEECHES.
 Job cpu time:       0 days  0 hours 16 minutes 11.7 seconds.
 Elapsed time:       0 days  0 hours  2 minutes  2.9 seconds.
 File lengths (MBytes):  RWF=    304 Int=      0 D2E=      0 Chk=      8 Scr=      2
 Normal termination of Gaussian 16 at Tue May  6 19:28:01 2025.
