   This run of MOLCAS is using the pymolcas driver

                             OPE
                             OPE          NMOL  CASOP  ENMOLC A   SO
                 OPE        NMOLC        AS  OP EN  MO LC     AS  OP
                OPENM       OL CA        SO  PE NM  OL CA     SOP EN
                OP EN      MO   LC       AS  OP ENMOL  CASO   PENMOL
                OP  EN     MO   LC       AS  OP EN     MO     LC ASO
               OP   E  NMOL  C  AS       OP  EN MO     LC     AS  OP
               OP  E   NMO   LC AS        OPEN  MO     LCASOP EN   M
               O  PEN   MO  LCA  SO
            OPE   NMO   L   CAS    OP
        OPENMOL  CASOP     ENMOL   CASOPE
     OPENMOLCA   SOPENMOLCASOPEN   MOLCASOPE
    OPENMOLCAS   OP           EN   MOL    CAS
    OPENMOLCAS       OP  ENM        O     LCA
    OPENMOLCAS    OPEN  MOLCASO     P  E  NMO
    OPENMOLCAS     OP               E  N  MOL
    OPENMOLCA   SO           PENM   O  L  CAS    OPEN    MO    LCAS
    OPENMOLCA   SOP           ENM   O  L  CAS   OP  EN  MOLC  AS   O
    OPENMOLCA   SOPE           NM      O  LCA   S      OP  EN MO
    OPENMOLC                AS         O  PEN   M      OL  CA  SOPE
    OPENMO        LCASOPE  NMOL        C  ASO   P      ENMOLC     AS
    OPE     NMO      LCA  SO     P     E   NM   OL  CA SO  PE N   MO
          OPENMOLCA            SOPE   NMO        LCAS  O    P  ENMO
     OPENMOLCASOPENMOLCASOPENMOLCASOPENMOLCA
        OPENMOLCASOPENMOLCASOPENMOLCASOPE
            OPENMOLCASOPENMOLCASOPENM
               OPENMOLCASOPENMOLCA        version: v23.06
                   OPENMOLCASO
                       OPE                tag:

 OpenMolcas is free software; you can redistribute it and/or modify it
 under the terms of the GNU Lesser General Public License version 2.1.
 OpenMolcas is distributed in the hope that it will be useful, but it
 is provided "as is" and without any express or implied warranties.
 For more details see the full text of the license in the file
 LICENSE or in <http://www.gnu.org/licenses/>.

                 Copyright (C) The OpenMolcas Authors
           For the author list and the recommended citation,
                   consult the file CONTRIBUTORS.md

           *************************************************
           * pymolcas version py2.24                       *
           *   build 0399f41f8acc7cc530e7639ac37f2484      *
           *   (after the EMIL interpreter by V. Veryazov) *
           *************************************************

configuration info
------------------
Host name: manganese.itc.univie.ac.at (Linux)
C Compiler ID: GNU
C flags: -std=gnu99
Fortran Compiler ID: Intel
Fortran flags: -fpp -i8 -heap-arrays
Definitions: _MOLCAS_;_I8_;_LINUX_
Parallel: OFF (GA=OFF)


   ---------------------------------------------------------------------------
  |
  |           Project: MOLCAS
  |    Submitted from: /public/manganese/scratch/tmp/sascha.925337/WORK/master
  |      Scratch area: /public/manganese/scratch/tmp/sascha.925337/WORK/master
  |   Save outputs to: WORKDIR
  |            Molcas: /usr/license/openmolcas/v23.06_wfa
  |
  | Scratch area is NOT empty
  |
  |        MOLCASMEM = 10000
  |    MOLCAS_DRIVER = /usr/license/openmolcas/v23.06_wfa/pymolcas
  |    MOLCAS_NPROCS = 1
  |    MOLCAS_SOURCE = /usr/license/openmolcas/v23.06_wfa
  | MOLCAS_STRUCTURE = 0
  |
   ---------------------------------------------------------------------------

++ ---------   Input file   ---------

&GATEWAY
COORD=MOLCAS.xyz
GROUP=NOSYM
BASIS=cc-pvdz
AMFI
angmom
0 0 0
BASLIB
/user/sascha/development/eci/sharc_main/examples/SHARC_MOLCAS/basisset

RICD
CDTHreshold=0.0001

&SEWARD

&RASSCF
SPIN=5
NACTEL=8 0 0
INACTIVE=5
RAS2=6
ITERATIONS=200,100
CIROOT=4 4 1
ORBLISTING=NOTHING
PRWF=0.1
THRS=0.000000010000 0.000100000000 0.000100000000

>>> COPY MOLCAS.JobIph MOLCAS.5.JobIph

&RASSCF
SPIN=6
NACTEL=7 0 0
INACTIVE=5
RAS2=6
ITERATIONS=200,100
CIROOT=4 4 1
ORBLISTING=NOTHING
PRWF=0.1
THRS=0.000000010000 0.000100000000 0.000100000000

>>> COPY MOLCAS.JobIph MOLCAS.6.JobIph

>>> COPY MOLCAS.5.JobIph JOB001

&RASSI
NROFJOBIPHS
1 2
1 2
MEIN

>>> COPY MOLCAS.rassi.h5 MOLCAS.rassi.5.h5

>>> COPY MOLCAS.6.JobIph JOB001

&RASSI
NROFJOBIPHS
1 2
1 2
MEIN

>>> COPY MOLCAS.rassi.h5 MOLCAS.rassi.6.h5

>>> COPY MOLCAS.5.JobIph JOB001

>>> COPY MOLCAS.6.JobIph JOB002

&RASSI
NROFJOBIPHS
2 2 2
1 2
1 2
MEIN
SPINORBIT
SOCOUPLING=0.0d0
EJOB
CIPR
THRS=0.000005d0
DYSON

-- ----------------------------------

--- Start Module: gateway at Wed Mar 27 17:10:45 2024 ---
 
()()()()()()()()()()()()()()()()()()()()()()()()()()()()()()()()()()()()()()()()()()()()()()()()()()

                                              &GATEWAY

                                   only a single process is used
                       available to each process: 10 GB of memory, 1 thread?
                                            pid: 940044
()()()()()()()()()()()()()()()()()()()()()()()()()()()()()()()()()()()()()()()()()()()()()()()()()()
 
 
 
 Basis Set     1 Label: S.CC-PVDZ
 Basis set is read from library:/user/sascha/development/eci/sharc_main/examples/SHARC_MOLCAS/basisset 
 
 
 Basis Set     2 Label: H.CC-PVDZ
 Basis set is read from library:/user/sascha/development/eci/sharc_main/examples/SHARC_MOLCAS/basisset 
 
++    Symmetry information:
      ---------------------
 
                    Character Table for C1 
 
                             E  
                    a        1  x, y, xy, Rz, z, xz, Ry, yz, Rx, I
--
 
 
++    Basis set information:
      ----------------------
 
 
      Basis set label: S.CC-PVDZ.........
 
      Electronic valence basis set:
      ------------------
      Associated Effective Charge  16.000000 au
      Associated Actual Charge     16.000000 au
      Nuclear Model: Point charge
 
      Shell  nPrim  nBasis  Cartesian Spherical Contaminant
         s      12       4        X                  
         p       8       3        X                  
         d       1       1                 X         
 
 
      Basis set label: H.CC-PVDZ.........
 
      Electronic valence basis set:
      ------------------
      Associated Effective Charge   1.000000 au
      Associated Actual Charge      1.000000 au
      Nuclear Model: Point charge
 
      Shell  nPrim  nBasis  Cartesian Spherical Contaminant
         s       4       2        X                  
         p       1       1        X                  
--
 
 
++    Molecular structure info:
      -------------------------
 
                    ************************************************ 
                    **** Cartesian Coordinates / Bohr, Angstrom **** 
                    ************************************************ 
 
     Center  Label                x              y              z                     x              y              z
        1      S1               0.000000       0.000000       0.001589              0.000000       0.000000       0.000841
        2      H2               0.000000       1.842103       2.235421              0.000000       0.974799       1.182934
        3      H3              -0.188973      -1.842103       2.235421             -0.100000      -0.974799       1.182934
 
                    *************************************** 
                    *    InterNuclear Distances / Bohr    * 
                    *************************************** 
 
               1 S1            2 H2            3 H3    
    1 S1       0.000000
    2 H2       2.895401        0.000000
    3 H3       2.901562        3.689050        0.000000
 
                    ******************************************* 
                    *    InterNuclear Distances / Angstrom    * 
                    ******************************************* 
 
               1 S1            2 H2            3 H3    
    1 S1       0.000000
    2 H2       1.532180        0.000000
    3 H3       1.535440        1.952161        0.000000
 
                    ************************************** 
                    *    Valence Bond Angles / Degree    * 
                    ************************************** 
                          Atom centers                 Phi
                      2 H2       1 S1       3 H3        79.04
--
 
 
            Nuclear Potential Energy             11.31134847 au
 
--- Stop Module: gateway at Wed Mar 27 17:10:46 2024 /rc=_RC_ALL_IS_WELL_ ---

--- Start Module: seward at Wed Mar 27 17:10:46 2024 ---
 
()()()()()()()()()()()()()()()()()()()()()()()()()()()()()()()()()()()()()()()()()()()()()()()()()()

                                              &SEWARD

                                   only a single process is used
                       available to each process: 10 GB of memory, 1 thread?
                                            pid: 940047
()()()()()()()()()()()()()()()()()()()()()()()()()()()()()()()()()()()()()()()()()()()()()()()()()()
 
               SEWARD will generate:
                  Multipole Moment integrals up to order  2
                  Kinetic Energy integrals
                  Nuclear Attraction integrals (point charge)
                  One-Electron Hamiltonian integrals
                  Velocity integrals
                  Orbital angular momentum around ( 0.0000  0.0000  0.0000 )
                  Velocity quadrupole around (-0.0056  0.0000  0.1341 )
                  Atomic mean-field integrals
                  RI decomposed two-electron repulsion integrals stored Cholesky style
                   - acCD auxiliary basis
                   - CD Threshold:   0.10E-03
 
                   Integrals are discarded if absolute value <: 0.10E-13
                   Integral cutoff threshold is set to       <: 0.10E-15
 
            Nuclear Potential Energy             11.31134847 au
 
 
      Basis set specifications :
      Symmetry species         a  
      Basis functions           28
 
 
      Input file to MOLDEN was generated!
 
--- Stop Module: seward at Wed Mar 27 17:10:47 2024 /rc=_RC_ALL_IS_WELL_ ---

*** symbolic link created: INPORB -> MOLCAS.GssOrb
--- Start Module: rasscf at Wed Mar 27 17:10:47 2024 ---
 
()()()()()()()()()()()()()()()()()()()()()()()()()()()()()()()()()()()()()()()()()()()()()()()()()()

                                              &RASSCF

                                   only a single process is used
                       available to each process: 10 GB of memory, 1 thread?
                                            pid: 940050
()()()()()()()()()()()()()()()()()()()()()()()()()()()()()()()()()()()()()()()()()()()()()()()()()()
 
 
      Header of the ONEINT file:
      --------------------------
      
      Integrals generated by Gateway/Seward, Wed Mar 27 17:10:46 2024
 
 
      OrdInt status: non-squared
 
 
      Cartesian coordinates in Angstrom:
      -----------------------------------------------------
      No.  Label        X            Y            Z        
      -----------------------------------------------------
       1   S1         0.00000000   0.00000000   0.00084100
       2   H2         0.00000000   0.97479900   1.18293400
       3   H3        -0.10000000  -0.97479900   1.18293400
      -----------------------------------------------------
      Nuclear repulsion energy =   11.31134847
 
++    Wave function specifications:
      -----------------------------
 
      Number of closed shell electrons          10
      Number of electrons in active shells       8
      Max number of holes in RAS1 space          0
      Max nr of electrons in RAS3 space          0
      Number of inactive orbitals                5
      Number of active orbitals                  6
      Number of secondary orbitals              17
      Spin quantum number                      2.0
      State symmetry                             1
--
 
++    Orbital specifications:
      -----------------------
 
      Symmetry species                           1
                                                 a
      Frozen orbitals                            0
      Inactive orbitals                          5
      Active orbitals                            6
      RAS1 orbitals                              0
      RAS2 orbitals                              6
      RAS3 orbitals                              0
      Secondary orbitals                        17
      Deleted orbitals                           0
      Number of basis functions                 28
--
 
++    CI expansion specifications:
      ----------------------------
 
      Number of CSFs                            15
      Number of determinants                    15
      Number of root(s) required                 4
      Root chosen for geometry opt.              4
      CI roots used                              1     2     3     4
      weights                                0.250 0.250 0.250 0.250
      highest root included in the CI            4
      max. size of the explicit Hamiltonian     15
--
 
++    Optimization specifications:
      ----------------------------
 
      RASSCF algorithm: LK RI/DF
      Maximum number of macro iterations       200
      Maximum number of SX iterations          100
      Threshold for RASSCF energy            0.100E-07
      Threshold for max MO rotation          0.100E-03
      Threshold for max BLB element          0.100E-03
      Level shift parameter                  0.500E+00
      Make Quasi-Newton update
--
 
      Orbitals from runfile: guessorb orbitals
      The MO-coefficients are taken from guessorb on runfile
 
      Total molecular charge    0.00
 
      ************************************************************************************************************************
      *                                                                                                                      *
      *                                            Wave function control section                                             *
      *                                                                                                                      *
      ************************************************************************************************************************
 
 
                                         RASSCF iterations: Energy and convergence statistics
                                         ----------------------------------------------------
 
      Iter CI   SX   CI       RASSCF       Energy    max ROT     max BLB   max BLB  Level Ln srch  Step   QN   Walltime
          iter iter root      energy       change     param      element    value   shift minimum  type update hh:mm:ss
 Nr of preliminary CI iterations:   1
        1   1   70    0  -398.07564986    0.00E+00   0.15E+00*  11  13 1 -0.11E+00*  0.00   0.00    SX    NO    0:00:00
        2   1   32    0  -398.16639087   -0.91E-01*  0.43E-01*  11  13 1 -0.31E-01*  0.00   0.00    SX    NO    0:00:00
        3   1   16    0  -398.17320484   -0.68E-02* -0.20E-01*  10  18 1 -0.27E-01*  0.00   0.00    SX    NO    0:00:00
        4   1   17    0  -398.17497486   -0.18E-02*  0.97E-02*  10  13 1 -0.92E-02*  0.00   0.00    SX    NO    0:00:00
        5   1   17    0  -398.17566117   -0.69E-03*  0.85E-01*  10  13 1 -0.93E-02*  0.00   1.58    QN   YES    0:00:00
        6   1   58    0  -398.16399884    0.12E-01*  0.43E-01*  11  18 1  0.51E-01*  0.00   0.15    LS   YES    0:00:00
        7   1   18    0  -398.17415382   -0.10E-01*  0.26E-01*  11  18 1  0.22E-01*  0.00   1.65    LS   YES    0:00:00
        8   1   16    0  -398.17604006   -0.19E-02* -0.25E-02*  10  18 1  0.63E-02*  0.00   1.11    QN   YES    0:00:00
        9   1   17    0  -398.17613006   -0.90E-04*  0.42E-02*  10  18 1  0.43E-02*  0.00   1.78    QN   YES    0:00:00
       10   1   16    0  -398.17618371   -0.54E-04*  0.22E-02*  10  18 1  0.16E-02*  0.00   1.40    QN   YES    0:00:00
       11   1   15    0  -398.17619521   -0.11E-04*  0.41E-03*   6  12 1 -0.36E-03*  0.00   1.21    QN   YES    0:00:00
       12   1   14    0  -398.17619613   -0.92E-06* -0.11E-03*   6  12 1 -0.84E-04   0.00   1.16    QN   YES    0:00:00
       13   1    7    0  -398.17619618   -0.48E-07* -0.37E-04   11  13 1  0.20E-04   0.00   1.13    QN   YES    0:00:00
       14   1    6    0  -398.17619618   -0.18E-08   0.78E-05   11  27 1  0.37E-05   0.00   1.29    QN   YES    0:00:00
      Convergence after 14 iterations
       15   1    6    0  -398.17619618   -0.11E-09   0.78E-05   11  27 1  0.95E-06   0.00   1.29    QN   YES    0:00:00
 
      ************************************************************************************************************************
                                                      Wave function printout:
                       occupation of active orbitals, and spin coupling of open shells (u,d: Spin up or down)
      ************************************************************************************************************************
 
      Note: transformation to natural orbitals
      has been made, which may change the order of the CSFs.
 
      printout of CI-coefficients larger than  0.10 for root  1
      energy=    -398.291775
      conf/sym  111111     Coeff  Weight
             1  22uuuu   0.52660 0.27730
             2  2u2uuu  -0.25872 0.06694
             6  2uuuu2   0.80853 0.65372
 
      printout of CI-coefficients larger than  0.10 for root  2
      energy=    -398.284032
      conf/sym  111111     Coeff  Weight
             1  22uuuu  -0.71482 0.51096
             2  2u2uuu  -0.64726 0.41894
             6  2uuuu2   0.25831 0.06672
 
      printout of CI-coefficients larger than  0.10 for root  3
      energy=    -398.214886
      conf/sym  111111     Coeff  Weight
             4  2uu2uu   0.99920 0.99840
 
      printout of CI-coefficients larger than  0.10 for root  4
      energy=    -397.914091
      conf/sym  111111     Coeff  Weight
             1  22uuuu   0.45637 0.20828
             2  2u2uuu  -0.71242 0.50754
             6  2uuuu2  -0.52854 0.27935
 
      Natural orbitals and occupation numbers for root  1
      sym 1:   1.999889   1.000111   1.000111   1.000000   1.000000   1.999889
 
      Natural orbitals and occupation numbers for root  2
      sym 1:   1.999905   1.999905   1.000095   1.000000   1.000000   1.000095
 
      Natural orbitals and occupation numbers for root  3
      sym 1:   2.000000   1.000000   1.000000   2.000000   1.000000   1.000000
 
      Natural orbitals and occupation numbers for root  4
      sym 1:   1.999032   1.000968   1.999032   1.000000   1.000000   1.000968
 
      ************************************************************************************************************************
      *                                                                                                                      *
      *                                                    Final results                                                     *
      *                                                                                                                      *
      ************************************************************************************************************************
 
 
++    Wave function specifications:
      -----------------------------
 
      Number of closed shell electrons          10
      Number of electrons in active shells       8
      Max number of holes in RAS1 space          0
      Max nr of electrons in RAS3 space          0
      Number of inactive orbitals                5
      Number of active orbitals                  6
      Number of secondary orbitals              17
      Spin quantum number                      2.0
      State symmetry                             1
--
 
++    Orbital specifications:
      -----------------------
 
      Symmetry species                           1
                                                 a
      Frozen orbitals                            0
      Inactive orbitals                          5
      Active orbitals                            6
      RAS1 orbitals                              0
      RAS2 orbitals                              6
      RAS3 orbitals                              0
      Secondary orbitals                        17
      Deleted orbitals                           0
      Number of basis functions                 28
--
 
++    CI expansion specifications:
      ----------------------------
 
      Number of CSFs                            15
      Number of determinants                    15
      Number of root(s) required                 4
      CI roots used                              1     2     3     4
      weights                                0.250 0.250 0.250 0.250
      highest root included in the CI            4
      Root passed to geometry opt.               4
--
 
++    Final optimization conditions:
      ------------------------------
 
      Average CI energy                            -398.17619618
      RASSCF energy for state  4                   -397.91409142
      Super-CI energy                                -0.00000000
      RASSCF energy change                           -0.00000000
      Max change in MO coefficients              -0.232E-04
      Max non-diagonal density matrix element     0.784E-05
      Maximum BLB matrix element                  0.955E-06
      (orbital pair  11,  27 in symmetry   1)
      Norm of electronic gradient            0.144E+00
--
 
 
      Final state energy(ies):
      ------------------------
 
::    RASSCF root number  1 Total energy:   -398.29177549
::    RASSCF root number  2 Total energy:   -398.28403181
::    RASSCF root number  3 Total energy:   -398.21488600
::    RASSCF root number  4 Total energy:   -397.91409142
      Von Neumann Entropy (Root   1) =  2.00011
 

      Mulliken population analysis for root number:  1
      -----------------------------------------------
 
 
++    Molecular charges:
      ------------------
 
      Mulliken charges per centre
      ---------------------------
 
                S1      H2      H3    
      Total   15.5638  1.0873  1.3488
 
      N-E      0.4362 -0.0873 -0.3488
 
      Total electronic charge=   18.000000
 
      Total            charge=   -0.000000
--
 
 

      Expectation values of various properties for root number:  1
      -----------------------------------------------------------
 
 
++    Molecular properties:
      ---------------------
 
      Charge (e):
                      =   -0.0000
      Dipole Moment (Debye):
      Origin of the operator (Ang)=    0.0000    0.0000    0.0000
                   X=  1.0627E-01               Y=  4.8713E-01               Z= -1.9217E+00           Total=  1.9854E+00
      Quadrupole Moment (Debye*Ang):
      Origin of the operator (Ang)=   -0.0030    0.0000    0.0709
                  XX= -1.4063E+01              XY= -3.2962E-01              XZ=  3.5809E-01              YY= -1.8645E+01
                  YZ=  2.1967E+00              ZZ= -1.9833E+01
      In traceless form (Debye*Ang)
                  XX=  5.1764E+00              XY= -4.9443E-01              XZ=  5.3713E-01              YY= -1.6978E+00
                  YZ=  3.2950E+00              ZZ= -3.4786E+00
--
 

      Mulliken spin population analysis for root number:  1
      ---------------------------------------------------
 
 
++    Molecular charges:
      ------------------
 
      Mulliken spin population per centre
      ---------------------------
 
                S1      H2      H3    
      Total    2.2012  1.0307  0.7680
 
      Total electronic spin=    4.000000
--
 
 
      Von Neumann Entropy (Root   2) =  2.00010
 

      Mulliken population analysis for root number:  2
      -----------------------------------------------
 
 
++    Molecular charges:
      ------------------
 
      Mulliken charges per centre
      ---------------------------
 
                S1      H2      H3    
      Total   15.5958  1.3135  1.0907
 
      N-E      0.4042 -0.3135 -0.0907
 
      Total electronic charge=   18.000000
 
      Total            charge=   -0.000000
--
 
 

      Expectation values of various properties for root number:  2
      -----------------------------------------------------------
 
 
++    Molecular properties:
      ---------------------
 
      Charge (e):
                      =   -0.0000
      Dipole Moment (Debye):
      Origin of the operator (Ang)=    0.0000    0.0000    0.0000
                   X=  4.3952E-02               Y= -4.4408E-01               Z= -1.5776E+00           Total=  1.6395E+00
      Quadrupole Moment (Debye*Ang):
      Origin of the operator (Ang)=   -0.0030    0.0000    0.0709
                  XX= -1.4031E+01              XY= -1.3045E-01              XZ=  1.5837E-01              YY= -1.8157E+01
                  YZ= -1.9348E+00              ZZ= -2.0108E+01
      In traceless form (Debye*Ang)
                  XX=  5.1012E+00              XY= -1.9568E-01              XZ=  2.3756E-01              YY= -1.0869E+00
                  YZ= -2.9021E+00              ZZ= -4.0143E+00
--
 

      Mulliken spin population analysis for root number:  2
      ---------------------------------------------------
 
 
++    Molecular charges:
      ------------------
 
      Mulliken spin population per centre
      ---------------------------
 
                S1      H2      H3    
      Total    2.1693  0.8045  1.0262
 
      Total electronic spin=    4.000000
--
 
 
      Von Neumann Entropy (Root   3) =  2.00000
 

      Mulliken population analysis for root number:  3
      -----------------------------------------------
 
 
++    Molecular charges:
      ------------------
 
      Mulliken charges per centre
      ---------------------------
 
                S1      H2      H3    
      Total   15.8158  1.0879  1.0963
 
      N-E      0.1842 -0.0879 -0.0963
 
      Total electronic charge=   18.000000
 
      Total            charge=   -0.000000
--
 
 

      Expectation values of various properties for root number:  3
      -----------------------------------------------------------
 
 
++    Molecular properties:
      ---------------------
 
      Charge (e):
                      =   -0.0000
      Dipole Moment (Debye):
      Origin of the operator (Ang)=    0.0000    0.0000    0.0000
                   X=  4.5292E-02               Y= -1.5949E-02               Z= -1.0901E+00           Total=  1.0912E+00
      Quadrupole Moment (Debye*Ang):
      Origin of the operator (Ang)=   -0.0030    0.0000    0.0709
                  XX= -1.6697E+01              XY=  3.2202E-04              XZ=  5.6308E-02              YY= -1.6599E+01
                  YZ=  1.0789E-01              ZZ= -1.7895E+01
      In traceless form (Debye*Ang)
                  XX=  5.5021E-01              XY=  4.8303E-04              XZ=  8.4463E-02              YY=  6.9663E-01
                  YZ=  1.6183E-01              ZZ= -1.2468E+00
--
 

      Mulliken spin population analysis for root number:  3
      ---------------------------------------------------
 
 
++    Molecular charges:
      ------------------
 
      Mulliken spin population per centre
      ---------------------------
 
                S1      H2      H3    
      Total    1.9493  1.0302  1.0205
 
      Total electronic spin=    4.000000
--
 
 
      Von Neumann Entropy (Root   4) =  2.00097
 

      Mulliken population analysis for root number:  4
      -----------------------------------------------
 
 
++    Molecular charges:
      ------------------
 
      Mulliken charges per centre
      ---------------------------
 
                S1      H2      H3    
      Total   15.0180  1.1066  1.8754
 
      N-E      0.9820 -0.1066 -0.8754
 
      Total electronic charge=   18.000000
 
      Total            charge=   -0.000000
--
 
 

      Expectation values of various properties for root number:  4
      -----------------------------------------------------------
 
 
++    Molecular properties:
      ---------------------
 
      Charge (e):
                      =   -0.0000
      Dipole Moment (Debye):
      Origin of the operator (Ang)=    0.0000    0.0000    0.0000
                   X=  3.5078E-01               Y=  2.8520E+00               Z= -4.8347E+00           Total=  5.6242E+00
      Quadrupole Moment (Debye*Ang):
      Origin of the operator (Ang)=   -0.0030    0.0000    0.0709
                  XX= -1.4592E+01              XY= -6.0977E-01              XZ=  7.2680E-01              YY= -2.1809E+01
                  YZ=  5.5898E+00              ZZ= -2.4935E+01
      In traceless form (Debye*Ang)
                  XX=  8.7794E+00              XY= -9.1465E-01              XZ=  1.0902E+00              YY= -2.0453E+00
                  YZ=  8.3847E+00              ZZ= -6.7341E+00
--
 

      Mulliken spin population analysis for root number:  4
      ---------------------------------------------------
 
 
++    Molecular charges:
      ------------------
 
      Mulliken spin population per centre
      ---------------------------
 
                S1      H2      H3    
      Total    2.7471  1.0114  0.2415
 
      Total electronic spin=    4.000000
--
 
 
 
      Input file to MOLDEN was generated!
 
 
      Input file to MOLDEN was generated!
 
 
      Input file to MOLDEN was generated!
 
 
      Input file to MOLDEN was generated!
 
 
      Input file to MOLDEN was generated!
 
      Average orbitals are written to the RASORB file
      Natural orbitals for root   1 are written to the RASORB.1 file
      Natural orbitals for root   2 are written to the RASORB.2 file
      Natural orbitals for root   3 are written to the RASORB.3 file
      Natural orbitals for root   4 are written to the RASORB.4 file
      Spin density orbitals for root   1 are written to the SPDORB.1 file
      Spin density orbitals for root   2 are written to the SPDORB.2 file
      Spin density orbitals for root   3 are written to the SPDORB.3 file
      Spin density orbitals for root   4 are written to the SPDORB.4 file
 
--- Stop Module: rasscf at Wed Mar 27 17:10:49 2024 /rc=_RC_ALL_IS_WELL_ ---
--- Module rasscf spent 2 seconds ---

>>> COPY MOLCAS.JobIph MOLCAS.5.JobIph

*** symbolic link created: INPORB -> MOLCAS.RasOrb
--- Start Module: rasscf at Wed Mar 27 17:10:49 2024 ---
 
()()()()()()()()()()()()()()()()()()()()()()()()()()()()()()()()()()()()()()()()()()()()()()()()()()

                                              &RASSCF

                                   only a single process is used
                       available to each process: 10 GB of memory, 1 thread?
                                            pid: 940062
()()()()()()()()()()()()()()()()()()()()()()()()()()()()()()()()()()()()()()()()()()()()()()()()()()
 
 
      Header of the ONEINT file:
      --------------------------
      
      Integrals generated by Gateway/Seward, Wed Mar 27 17:10:46 2024
 
 
      OrdInt status: non-squared
 
 
      Cartesian coordinates in Angstrom:
      -----------------------------------------------------
      No.  Label        X            Y            Z        
      -----------------------------------------------------
       1   S1         0.00000000   0.00000000   0.00084100
       2   H2         0.00000000   0.97479900   1.18293400
       3   H3        -0.10000000  -0.97479900   1.18293400
      -----------------------------------------------------
      Nuclear repulsion energy =   11.31134847
 
++    Wave function specifications:
      -----------------------------
 
      Number of closed shell electrons          10
      Number of electrons in active shells       7
      Max number of holes in RAS1 space          0
      Max nr of electrons in RAS3 space          0
      Number of inactive orbitals                5
      Number of active orbitals                  6
      Number of secondary orbitals              17
      Spin quantum number                      2.5
      State symmetry                             1
--
 
++    Orbital specifications:
      -----------------------
 
      Symmetry species                           1
                                                 a
      Frozen orbitals                            0
      Inactive orbitals                          5
      Active orbitals                            6
      RAS1 orbitals                              0
      RAS2 orbitals                              6
      RAS3 orbitals                              0
      Secondary orbitals                        17
      Deleted orbitals                           0
      Number of basis functions                 28
--
 
++    CI expansion specifications:
      ----------------------------
 
      Number of CSFs                             6
      Number of determinants                     6
      Number of root(s) required                 4
      Root chosen for geometry opt.              4
      CI roots used                              1     2     3     4
      weights                                0.250 0.250 0.250 0.250
      highest root included in the CI            4
      max. size of the explicit Hamiltonian      6
--
 
++    Optimization specifications:
      ----------------------------
 
      RASSCF algorithm: LK RI/DF
      Maximum number of macro iterations       200
      Maximum number of SX iterations          100
      Threshold for RASSCF energy            0.100E-07
      Threshold for max MO rotation          0.100E-03
      Threshold for max BLB element          0.100E-03
      Level shift parameter                  0.500E+00
      Make Quasi-Newton update
--
 
      Orbitals from runfile: rasscf orbitals
      The MO-coefficients are taken from rasscf orbitals on runfile
 
      Total molecular charge    1.00
 
      ************************************************************************************************************************
      *                                                                                                                      *
      *                                            Wave function control section                                             *
      *                                                                                                                      *
      ************************************************************************************************************************
 
 
                                         RASSCF iterations: Energy and convergence statistics
                                         ----------------------------------------------------
 
      Iter CI   SX   CI       RASSCF       Energy    max ROT     max BLB   max BLB  Level Ln srch  Step   QN   Walltime
          iter iter root      energy       change     param      element    value   shift minimum  type update hh:mm:ss
 Nr of preliminary CI iterations:   1
        1   1  100    0  -397.52635656    0.00E+00   0.82E-01*   9  15 1  0.11E+00*  0.00   0.00    SX    NO    0:00:00
        2   1   10    0  -397.57677245   -0.50E-01*  0.11E-01*   6  20 1 -0.17E-01*  0.00   0.00    SX    NO    0:00:00
        3   1    9    0  -397.57805695   -0.13E-02* -0.39E-02*   5  15 1 -0.26E-02*  0.00   0.00    SX    NO    0:00:00
        4   1    8    0  -397.57812053   -0.64E-04*  0.74E-03*   7  21 1 -0.82E-03*  0.00   0.00    SX    NO    0:00:00
        5   1    7    0  -397.57812422   -0.37E-05* -0.25E-03*   9  18 1 -0.20E-03*  0.00   1.05    QN   YES    0:00:00
        6   1    6    0  -397.57812448   -0.27E-06*  0.41E-04    9  18 1 -0.46E-04   0.00   1.11    QN   YES    0:00:00
        7   1    5    0  -397.57812449   -0.51E-08   0.10E-04    9  18 1 -0.94E-05   0.00   1.21    QN   YES    0:00:00
      Convergence after  7 iterations
        8   1    5    0  -397.57812449   -0.27E-09   0.10E-04   11  28 1  0.73E-06   0.00   1.21    QN   YES    0:00:00
 
      ************************************************************************************************************************
                                                      Wave function printout:
                       occupation of active orbitals, and spin coupling of open shells (u,d: Spin up or down)
      ************************************************************************************************************************
 
      Note: transformation to natural orbitals
      has been made, which may change the order of the CSFs.
 
      printout of CI-coefficients larger than  0.10 for root  1
      energy=    -397.865766
      conf/sym  111111     Coeff  Weight
             1  2uuuuu   1.00000 1.00000
 
      printout of CI-coefficients larger than  0.10 for root  2
      energy=    -397.500523
      conf/sym  111111     Coeff  Weight
             2  u2uuuu  -0.70679 0.49955
             6  uuuuu2   0.70743 0.50045
 
      printout of CI-coefficients larger than  0.10 for root  3
      energy=    -397.500097
      conf/sym  111111     Coeff  Weight
             2  u2uuuu  -0.70743 0.50045
             6  uuuuu2  -0.70679 0.49955
 
      printout of CI-coefficients larger than  0.10 for root  4
      energy=    -397.446111
      conf/sym  111111     Coeff  Weight
             4  uuu2uu  -1.00000 1.00000
 
      Natural orbitals and occupation numbers for root  1
      sym 1:   2.000000   1.000000   1.000000   1.000000   1.000000   1.000000
 
      Natural orbitals and occupation numbers for root  2
      sym 1:   1.000000   1.000000   1.000000   1.000000   1.000000   2.000000
 
      Natural orbitals and occupation numbers for root  3
      sym 1:   1.000000   2.000000   1.000000   1.000000   1.000000   1.000000
 
      Natural orbitals and occupation numbers for root  4
      sym 1:   1.000000   1.000000   1.000000   2.000000   1.000000   1.000000
 
      ************************************************************************************************************************
      *                                                                                                                      *
      *                                                    Final results                                                     *
      *                                                                                                                      *
      ************************************************************************************************************************
 
 
++    Wave function specifications:
      -----------------------------
 
      Number of closed shell electrons          10
      Number of electrons in active shells       7
      Max number of holes in RAS1 space          0
      Max nr of electrons in RAS3 space          0
      Number of inactive orbitals                5
      Number of active orbitals                  6
      Number of secondary orbitals              17
      Spin quantum number                      2.5
      State symmetry                             1
--
 
++    Orbital specifications:
      -----------------------
 
      Symmetry species                           1
                                                 a
      Frozen orbitals                            0
      Inactive orbitals                          5
      Active orbitals                            6
      RAS1 orbitals                              0
      RAS2 orbitals                              6
      RAS3 orbitals                              0
      Secondary orbitals                        17
      Deleted orbitals                           0
      Number of basis functions                 28
--
 
++    CI expansion specifications:
      ----------------------------
 
      Number of CSFs                             6
      Number of determinants                     6
      Number of root(s) required                 4
      CI roots used                              1     2     3     4
      weights                                0.250 0.250 0.250 0.250
      highest root included in the CI            4
      Root passed to geometry opt.               4
--
 
++    Final optimization conditions:
      ------------------------------
 
      Average CI energy                            -397.57812449
      RASSCF energy for state  4                   -397.44611115
      Super-CI energy                                -0.00000000
      RASSCF energy change                           -0.00000000
      Max change in MO coefficients               0.133E-04
      Max non-diagonal density matrix element     0.996E-05
      Maximum BLB matrix element                  0.725E-06
      (orbital pair  11,  28 in symmetry   1)
      Norm of electronic gradient            0.898E-01
--
 
 
      Final state energy(ies):
      ------------------------
 
::    RASSCF root number  1 Total energy:   -397.86576639
::    RASSCF root number  2 Total energy:   -397.50052345
::    RASSCF root number  3 Total energy:   -397.50009695
::    RASSCF root number  4 Total energy:   -397.44611115
      Von Neumann Entropy (Root   1) =  2.50000
 

      Mulliken population analysis for root number:  1
      -----------------------------------------------
 
 
++    Molecular charges:
      ------------------
 
      Mulliken charges per centre
      ---------------------------
 
                S1      H2      H3    
      Total   14.9299  1.0354  1.0346
 
      N-E      1.0701 -0.0354 -0.0346
 
      Total electronic charge=   17.000000
 
      Total            charge=    1.000000
--
 
 

      Expectation values of various properties for root number:  1
      -----------------------------------------------------------
 
 
++    Molecular properties:
      ---------------------
 
      Charge (e):
                      =    1.0000
      Dipole Moment (Debye):
      Origin of the operator (Ang)=    0.0000    0.0000    0.0000
                   X=  1.8027E-02               Y= -3.8790E-03               Z= -4.2687E-01           Total=  4.2726E-01
      Center of Charge (Ang)
                     X=    0.00375320               Y=   -0.00080758               Z=   -0.08887102
      Quadrupole Moment (Debye*Ang):
      Origin of the operator (Ang)=   -0.0030    0.0000    0.0709
                  XX= -1.1372E+01              XY= -6.0398E-02              XZ=  8.1817E-02              YY= -1.2551E+01
                  YZ= -9.4983E-03              ZZ= -1.3312E+01
      In traceless form (Debye*Ang)
                  XX=  1.5590E+00              XY= -9.0597E-02              XZ=  1.2273E-01              YY= -2.0916E-01
                  YZ= -1.4247E-02              ZZ= -1.3499E+00
--
 

      Mulliken spin population analysis for root number:  1
      ---------------------------------------------------
 
 
++    Molecular charges:
      ------------------
 
      Mulliken spin population per centre
      ---------------------------
 
                S1      H2      H3    
      Total    3.0455  0.9772  0.9773
 
      Total electronic spin=    5.000000
--
 
 
      Von Neumann Entropy (Root   2) =  2.50000
 

      Mulliken population analysis for root number:  2
      -----------------------------------------------
 
 
++    Molecular charges:
      ------------------
 
      Mulliken charges per centre
      ---------------------------
 
                S1      H2      H3    
      Total   14.8288  1.1636  1.0076
 
      N-E      1.1712 -0.1636 -0.0076
 
      Total electronic charge=   17.000000
 
      Total            charge=    1.000000
--
 
 

      Expectation values of various properties for root number:  2
      -----------------------------------------------------------
 
 
++    Molecular properties:
      ---------------------
 
      Charge (e):
                      =    1.0000
      Dipole Moment (Debye):
      Origin of the operator (Ang)=    0.0000    0.0000    0.0000
                   X= -1.4603E-02               Y= -2.9447E-01               Z= -7.8005E-03           Total=  2.9493E-01
      Center of Charge (Ang)
                     X=   -0.00304029               Y=   -0.06130625               Z=   -0.00162403
      Quadrupole Moment (Debye*Ang):
      Origin of the operator (Ang)=   -0.0030    0.0000    0.0709
                  XX= -1.1126E+01              XY= -5.1062E-02              XZ=  6.4963E-02              YY= -1.3484E+01
                  YZ= -1.6589E+00              ZZ= -1.4669E+01
      In traceless form (Debye*Ang)
                  XX=  2.9502E+00              XY= -7.6593E-02              XZ=  9.7444E-02              YY= -5.8706E-01
                  YZ= -2.4884E+00              ZZ= -2.3631E+00
--
 

      Mulliken spin population analysis for root number:  2
      ---------------------------------------------------
 
 
++    Molecular charges:
      ------------------
 
      Mulliken spin population per centre
      ---------------------------
 
                S1      H2      H3    
      Total    3.1467  0.8490  1.0044
 
      Total electronic spin=    5.000000
--
 
 
      Von Neumann Entropy (Root   3) =  2.50000
 

      Mulliken population analysis for root number:  3
      -----------------------------------------------
 
 
++    Molecular charges:
      ------------------
 
      Mulliken charges per centre
      ---------------------------
 
                S1      H2      H3    
      Total   14.8261  1.0097  1.1642
 
      N-E      1.1739 -0.0097 -0.1642
 
      Total electronic charge=   17.000000
 
      Total            charge=    1.000000
--
 
 

      Expectation values of various properties for root number:  3
      -----------------------------------------------------------
 
 
++    Molecular properties:
      ---------------------
 
      Charge (e):
                      =    1.0000
      Dipole Moment (Debye):
      Origin of the operator (Ang)=    0.0000    0.0000    0.0000
                   X=  2.2671E-02               Y=  2.9665E-01               Z= -1.7221E-01           Total=  3.4376E-01
      Center of Charge (Ang)
                     X=    0.00471993               Y=    0.06176112               Z=   -0.03585222
      Quadrupole Moment (Debye*Ang):
      Origin of the operator (Ang)=   -0.0030    0.0000    0.0709
                  XX= -1.1134E+01              XY= -2.0616E-01              XZ=  2.2188E-01              YY= -1.3783E+01
                  YZ=  1.6377E+00              ZZ= -1.4374E+01
      In traceless form (Debye*Ang)
                  XX=  2.9442E+00              XY= -3.0924E-01              XZ=  3.3281E-01              YY= -1.0290E+00
                  YZ=  2.4566E+00              ZZ= -1.9152E+00
--
 

      Mulliken spin population analysis for root number:  3
      ---------------------------------------------------
 
 
++    Molecular charges:
      ------------------
 
      Mulliken spin population per centre
      ---------------------------
 
                S1      H2      H3    
      Total    3.1494  1.0028  0.8478
 
      Total electronic spin=    5.000000
--
 
 
      Von Neumann Entropy (Root   4) =  2.50000
 

      Mulliken population analysis for root number:  4
      -----------------------------------------------
 
 
++    Molecular charges:
      ------------------
 
      Mulliken charges per centre
      ---------------------------
 
                S1      H2      H3    
      Total   14.9840  1.0082  1.0078
 
      N-E      1.0160 -0.0082 -0.0078
 
      Total electronic charge=   17.000000
 
      Total            charge=    1.000000
--
 
 

      Expectation values of various properties for root number:  4
      -----------------------------------------------------------
 
 
++    Molecular properties:
      ---------------------
 
      Charge (e):
                      =    1.0000
      Dipole Moment (Debye):
      Origin of the operator (Ang)=    0.0000    0.0000    0.0000
                   X= -1.4895E-02               Y=  6.8849E-04               Z=  3.5703E-01           Total=  3.5734E-01
      Center of Charge (Ang)
                     X=   -0.00310115               Y=    0.00014334               Z=    0.07433166
      Quadrupole Moment (Debye*Ang):
      Origin of the operator (Ang)=   -0.0030    0.0000    0.0709
                  XX= -1.3460E+01              XY=  6.7336E-02              XZ= -2.6182E-02              YY= -1.2154E+01
                  YZ= -2.4266E-03              ZZ= -1.2848E+01
      In traceless form (Debye*Ang)
                  XX= -9.5885E-01              XY=  1.0100E-01              XZ= -3.9273E-02              YY=  1.0005E+00
                  YZ= -3.6399E-03              ZZ= -4.1618E-02
--
 

      Mulliken spin population analysis for root number:  4
      ---------------------------------------------------
 
 
++    Molecular charges:
      ------------------
 
      Mulliken spin population per centre
      ---------------------------
 
                S1      H2      H3    
      Total    2.9914  1.0044  1.0041
 
      Total electronic spin=    5.000000
--
 
 
 
      Input file to MOLDEN was generated!
 
 
      Input file to MOLDEN was generated!
 
 
      Input file to MOLDEN was generated!
 
 
      Input file to MOLDEN was generated!
 
 
      Input file to MOLDEN was generated!
 
      Average orbitals are written to the RASORB file
      Natural orbitals for root   1 are written to the RASORB.1 file
      Natural orbitals for root   2 are written to the RASORB.2 file
      Natural orbitals for root   3 are written to the RASORB.3 file
      Natural orbitals for root   4 are written to the RASORB.4 file
      Spin density orbitals for root   1 are written to the SPDORB.1 file
      Spin density orbitals for root   2 are written to the SPDORB.2 file
      Spin density orbitals for root   3 are written to the SPDORB.3 file
      Spin density orbitals for root   4 are written to the SPDORB.4 file
 
--- Stop Module: rasscf at Wed Mar 27 17:10:51 2024 /rc=_RC_ALL_IS_WELL_ ---
--- Module rasscf spent 2 seconds ---

>>> COPY MOLCAS.JobIph MOLCAS.6.JobIph

>>> COPY MOLCAS.5.JobIph JOB001

*** symbolic link created: INPORB -> MOLCAS.RasOrb
--- Start Module: rassi at Wed Mar 27 17:10:51 2024 ---
 
()()()()()()()()()()()()()()()()()()()()()()()()()()()()()()()()()()()()()()()()()()()()()()()()()()

                                               &RASSI

                                   only a single process is used
                       available to each process: 10 GB of memory, 1 thread?
                                            pid: 940072
()()()()()()()()()()()()()()()()()()()()()()()()()()()()()()()()()()()()()()()()()()()()()()()()()()
 
 
      ********************************************************************************
      *                                                                              *
      *                             General data section                             *
      *                                                                              *
      ********************************************************************************
 
   Specific data for JOBIPH file 
 JOB001                                                                         
                                                  
   -------------------------------------
 
   Header from SEWARD:
                                                                               
        Integrals generated by Gateway/Seward, Wed Mar 27 17:10:46 2024        
 
   CASSCF title (first line only):
       (No title given)                                                        
 
   STATE IRREP:                             1
   SPIN MULTIPLICITY:                       5
   ACTIVE ELECTRONS:                        8
   MAX RAS1 HOLES:                          0
   MAX RAS3 ELECTRONS:                      0
   NR OF CONFIG:                           15
 
   The following data are common to all the states:
   ------------------------------------------------
   (note: frozen counts as inactive, deleted as secondary)
 
      Nr of irreps: 1
 
                 Total     No./Irrep 
      Irrep                  1
                             a
 
      INACTIVE       5       5
      ACTIVE         6       6
      SECONDARY     17      17
      BASIS         28      28
 
      RAS1           0       0
      RAS2           6       6
      RAS3           0       0
 
        MATRIX ELEMENTS WILL BE COMPUTED FOR THE FOLLOWING ONE-ELECTRON OPERATOR
 S, UNLESS ZERO BY SYMMETRY.
   (Herm=Hermitian, Anti=Antihermitian, Sing=Singlet operator, Trip=Triplet oper
 ator)
     MLTPL  0   1 (HERMSING)     MLTPL  1   1 (HERMSING)     MLTPL  1   2 (HERMSING)
     MLTPL  1   3 (HERMSING)     MLTPL  2   1 (HERMSING)     MLTPL  2   2 (HERMSING)
     MLTPL  2   3 (HERMSING)     MLTPL  2   4 (HERMSING)     MLTPL  2   5 (HERMSING)
     MLTPL  2   6 (HERMSING)     VELOCITY   1 (ANTISING)     VELOCITY   2 (ANTISING)
     VELOCITY   3 (ANTISING)     ANGMOM     1 (ANTISING)     ANGMOM     2 (ANTISING)
     ANGMOM     3 (ANTISING)     MLTPV  2   1 (ANTISING)     MLTPV  2   2 (ANTISING)
     MLTPV  2   3 (ANTISING)     MLTPV  2   4 (ANTISING)     MLTPV  2   5 (ANTISING)
     MLTPV  2   6 (ANTISING)
 
       EIGENSTATES OF A SPIN-FREE HAMILTONIAN WILL BE COMPUTED BASED ON:
 
  A Hamiltonian matrix computed by RASSI.
 
  Nr of states:                     2
 
   State:        1   2
  JobIph:        1   1
 Root nr:        1   2
 
  HAMILTONIAN MATRIX FOR THE ORIGINAL STATES:
 
  Diagonal, with energies
   -398.29177549   -398.28403181
 
      OVERLAP MATRIX FOR THE ORIGINAL STATES:
 
  Diagonal, with elements
      1.00000000      1.00000000
 
++ Matrix elements for input states
   --------------------------------
 
  MATRIX ELEMENTS OF 1-ELECTRON OPERATORS
  FOR THE RASSCF INPUT WAVE FUNCTIONS:
 
 
 PROPERTY: MLTPL  0   COMPONENT:*   1
 ORIGIN    :   0.00000000D+00   0.00000000D+00   0.00000000D+00
 STATE     :       1                2
 
     1       -0.127897692E-12  0.203938429E-14
     2        0.203938429E-14 -0.131450406E-12
 
 
 PROPERTY: MLTPL  1   COMPONENT:*   1
 ORIGIN    :   0.00000000D+00   0.00000000D+00   0.00000000D+00
 STATE     :       1                2
 
     1        0.418102425E-01 -0.807994846E-02
     2       -0.807994846E-02  0.172920400E-01
 
 
 PROPERTY: MLTPL  1   COMPONENT:*   2
 ORIGIN    :   0.00000000D+00   0.00000000D+00   0.00000000D+00
 STATE     :       1                2
 
     1        0.191649944      0.525791315E-01
     2        0.525791315E-01 -0.174715055    
 
 
 PROPERTY: MLTPL  1   COMPONENT:*   3
 ORIGIN    :   0.00000000D+00   0.00000000D+00   0.00000000D+00
 STATE     :       1                2
 
     1       -0.756067008      0.254785255    
     2        0.254785255     -0.620684737    
 
 
 PROPERTY: MLTPL  2   COMPONENT:*   1
 ORIGIN    :  -0.56035333D-02   0.00000000D+00   0.13406721D+00
 STATE     :       1                2
 
     1        -10.4551952     -0.246806794E-01
     2       -0.246806794E-01  -10.4319439    
 
 
 PROPERTY: MLTPL  2   COMPONENT:*   2
 ORIGIN    :  -0.56035333D-02   0.00000000D+00   0.13406721D+00
 STATE     :       1                2
 
     1       -0.245066841      0.315550158E-01
     2        0.315550158E-01 -0.969867774E-01
 
 
 PROPERTY: MLTPL  2   COMPONENT:*   3
 ORIGIN    :  -0.56035333D-02   0.00000000D+00   0.13406721D+00
 STATE     :       1                2
 
     1        0.266230890      0.463871386E-01
     2        0.463871386E-01  0.117744831    
 
 
 PROPERTY: MLTPL  2   COMPONENT:*   4
 ORIGIN    :  -0.56035333D-02   0.00000000D+00   0.13406721D+00
 STATE     :       1                2
 
     1        -13.8623960      0.826264810    
     2        0.826264810      -13.4990335    
 
 
 PROPERTY: MLTPL  2   COMPONENT:*   5
 ORIGIN    :  -0.56035333D-02   0.00000000D+00   0.13406721D+00
 STATE     :       1                2
 
     1         1.63318446      0.285465803    
     2        0.285465803      -1.43843988    
 
 
 PROPERTY: MLTPL  2   COMPONENT:*   6
 ORIGIN    :  -0.56035333D-02   0.00000000D+00   0.13406721D+00
 STATE     :       1                2
 
     1        -14.7450713     -0.774844396    
     2       -0.774844396      -14.9500242    
 
 
 PROPERTY: VELOCITY   COMPONENT:*   1
 ORIGIN    :   0.00000000D+00   0.00000000D+00   0.00000000D+00
 STATE     :       1                2
 
     1        0.491694757E-17 -0.960622227E-03
     2        0.960622227E-03  0.689698262E-17
 
 
 PROPERTY: VELOCITY   COMPONENT:*   2
 ORIGIN    :   0.00000000D+00   0.00000000D+00   0.00000000D+00
 STATE     :       1                2
 
     1        0.395339448E-16 -0.213867603E-01
     2        0.213867603E-01  0.479832422E-16
 
 
 PROPERTY: VELOCITY   COMPONENT:*   3
 ORIGIN    :   0.00000000D+00   0.00000000D+00   0.00000000D+00
 STATE     :       1                2
 
     1       -0.393170507E-16 -0.322382430E-02
     2        0.322382430E-02 -0.113735440E-16
 
 
 PROPERTY: ANGMOM     COMPONENT:*   1
 ORIGIN    :   0.00000000D+00   0.00000000D+00   0.00000000D+00
 STATE     :       1                2
 
     1       -0.948893771E-16  0.910814865    
     2       -0.910814865      0.178695379E-15
 
 
 PROPERTY: ANGMOM     COMPONENT:*   2
 ORIGIN    :   0.00000000D+00   0.00000000D+00   0.00000000D+00
 STATE     :       1                2
 
     1        0.364598149E-18 -0.467183024E-01
     2        0.467183024E-01 -0.105262793E-16
 
 
 PROPERTY: ANGMOM     COMPONENT:*   3
 ORIGIN    :   0.00000000D+00   0.00000000D+00   0.00000000D+00
 STATE     :       1                2
 
     1       -0.132807807E-16  0.385269541E-01
     2       -0.385269541E-01  0.169641371E-16
 
 
 PROPERTY: MLTPV  2   COMPONENT:*   1
 ORIGIN    :  -0.56035333D-02   0.00000000D+00   0.13406721D+00
 STATE     :       1                2
 
     1        0.279916260E-15  0.870421059E-02
     2       -0.870421059E-02 -0.428448140E-16
 
 
 PROPERTY: MLTPV  2   COMPONENT:*   2
 ORIGIN    :  -0.56035333D-02   0.00000000D+00   0.13406721D+00
 STATE     :       1                2
 
     1        0.116256162E-16  0.114512016E-04
     2       -0.114512016E-04  0.598527676E-17
 
 
 PROPERTY: MLTPV  2   COMPONENT:*   3
 ORIGIN    :  -0.56035333D-02   0.00000000D+00   0.13406721D+00
 STATE     :       1                2
 
     1       -0.137995883E-16 -0.434539727E-03
     2        0.434539727E-03 -0.602888539E-17
 
 
 PROPERTY: MLTPV  2   COMPONENT:*   4
 ORIGIN    :  -0.56035333D-02   0.00000000D+00   0.13406721D+00
 STATE     :       1                2
 
     1        0.364248142E-15  0.380676845E-02
     2       -0.380676845E-02  0.206669987E-17
 
 
 PROPERTY: MLTPV  2   COMPONENT:*   5
 ORIGIN    :  -0.56035333D-02   0.00000000D+00   0.13406721D+00
 STATE     :       1                2
 
     1       -0.113138322E-15 -0.618662500E-02
     2        0.618662500E-02 -0.931835753E-16
 
 
 PROPERTY: MLTPV  2   COMPONENT:*   6
 ORIGIN    :  -0.56035333D-02   0.00000000D+00   0.13406721D+00
 STATE     :       1                2
 
     1        0.427843134E-15  0.114563407E-01
     2       -0.114563407E-01  0.199305534E-16
 
--
 
::    RASSI State    1     Total energy:    -398.29177549227938
::    RASSI State    2     Total energy:    -398.28403181367418
 
 
 
      ****************************************************************************************************
      *                                                                                                  *
      *                                         Spin-free section                                        *
      *                                                                                                  *
      *                 Note: index according to input order, order according to energy.                 *
      *                                                                                                  *
      ****************************************************************************************************
 
 
 
  SPIN-FREE ENERGIES:
  (Shifted by EMIN (a.u.) =       -398.2917754923)
 
 SF State       Relative EMIN(au)   Rel lowest level(eV)    D:o, cm**(-1)
 
     1             0.0000000000        0.0000000000              0.0000
     2             0.0077436786        0.2107162295           1699.5410
 
++ Dipole transition strengths (spin-free states):
   -----------------------------------------------
     for osc. strength at least  1.00000000E-05
 
      From   To        Osc. strength     Einstein coefficients Ax, Ay, Az (sec-1)    Total A (sec-1)
     -----------------------------------------------------------------------------------------------
         1    2       3.49732284E-04  6.49349880E-01  2.74971954E+01  6.45669344E+02  6.73815889E+02
     -----------------------------------------------------------------------------------------------
--
 
++ Velocity transition strengths (spin-free states):
   -------------------------------------------------
     for osc. strength at least  1.00000000E-05
 
      From   To        Osc. strength     Einstein coefficients Ax, Ay, Az (sec-1)    Total A (sec-1)
     -----------------------------------------------------------------------------------------------
         1    2       4.03519978E-02  1.53063700E+02  7.58677051E+04  1.72389049E+03  7.77446592E+04
     -----------------------------------------------------------------------------------------------
--
 
++ Length and velocity gauge comparison (spin-free states):
   --------------------------------------------------------
 
 --------------------------------------------------
 A comparison between the dipole oscillator strengths in 
 length and velocity gauge will be performed
 
     All dipole oscillator differences above the tolerance of   1.00000000E-01  will be printed 
 
 Due to basis set deficiency these oscillator may be problematic 
 
 The tolerance is defined as ABS(1-O_l/O_v) 
 O_l : dipole oscillator strength in length gauge
 O_p : dipole oscillator strength in velocity gauge
 --------------------------------------------------
 
  Problematic transitions have been found
 
      From   To       Difference (%) Osc. st. (len.) Osc. st. (vel.)
     ---------------------------------------------------------------
         1    2            99.133296  3.49732284E-04  4.03519978E-02
     ---------------------------------------------------------------
 
 Number of problematic transitions =                      1
 
--
 
 Electric-dipole - electric-octupole not included
 Electric-dipole - magnetic-quadrupole not included
 
 
      ****************************************************************************************************
      *                                                                                                  *
      *                                    Special properties section                                    *
      *                                                                                                  *
      ****************************************************************************************************
 
 
++ I/O STATISTICS
 
  I. General I/O information
  - - - - - - - - - - - - - - - - - - - - - - - - - - - - - - - - - - - - - - - - - - -
  Unit  Name          Flsize      Write/Read            MBytes           Write/Read
                      (MBytes)       Calls              In/Out           Time, sec.
  - - - - - - - - - - - - - - - - - - - - - - - - - - - - - - - - - - - - - - - - - - -
   1  ANNI              0.00 .       0/       0 .      0.0/      0.0 .       0/       0
   2  RUNFILE           0.24 .     280/    1488 .      2.0/     10.8 .       0/       0
   3  ONEINT            1.46 .       0/     254 .      0.0/    239.5 .       0/       0
   4  JOB001            1.18 .       0/      38 .      0.0/      0.2 .       0/       0
   5  CHRED             0.01 .       0/       6 .      0.0/      0.0 .       0/       0
   6  CHVEC1            0.36 .       0/       5 .      0.0/      0.4 .       0/       0
   7  CHORST            0.00 .       0/      12 .      0.0/      0.0 .       0/       0
   8  CHOMAP            0.00 .       0/       0 .      0.0/      0.0 .       0/       0
   9  CHODIAG           0.00 .       0/       1 .      0.0/      0.0 .       0/       0
  - - - - - - - - - - - - - - - - - - - - - - - - - - - - - - - - - - - - - - - - - - -
   *  TOTAL             3.25 .     280/    1804 .      2.0/    250.8 .       0/       0
  - - - - - - - - - - - - - - - - - - - - - - - - - - - - - - - - - - - - - - - - - - -
 
  II. I/O Access Patterns
  - - - - - - - - - - - - - - - - - - - -
  Unit  Name               % of random
                         Write/Read calls
  - - - - - - - - - - - - - - - - - - - -
   1  ANNI                 0.0/   0.0
   2  RUNFILE             28.6/   9.9
   3  ONEINT               0.0/  98.0
   4  JOB001               0.0/  81.6
   5  CHRED                0.0/  16.7
   6  CHVEC1               0.0/   0.0
   7  CHORST               0.0/   0.0
   8  CHOMAP               0.0/   0.0
   9  CHODIAG              0.0/   0.0
  - - - - - - - - - - - - - - - - - - - -
--
--- Stop Module: rassi at Wed Mar 27 17:10:52 2024 /rc=_RC_ALL_IS_WELL_ ---

>>> COPY MOLCAS.rassi.h5 MOLCAS.rassi.5.h5

>>> COPY MOLCAS.6.JobIph JOB001

*** symbolic link created: INPORB -> MOLCAS.RasOrb
--- Start Module: rassi at Wed Mar 27 17:10:52 2024 ---
 
()()()()()()()()()()()()()()()()()()()()()()()()()()()()()()()()()()()()()()()()()()()()()()()()()()

                                               &RASSI

                                   only a single process is used
                       available to each process: 10 GB of memory, 1 thread?
                                            pid: 940084
()()()()()()()()()()()()()()()()()()()()()()()()()()()()()()()()()()()()()()()()()()()()()()()()()()
 
 
      ********************************************************************************
      *                                                                              *
      *                             General data section                             *
      *                                                                              *
      ********************************************************************************
 
   Specific data for JOBIPH file 
 JOB001                                                                         
                                                  
   -------------------------------------
 
   Header from SEWARD:
                                                                               
        Integrals generated by Gateway/Seward, Wed Mar 27 17:10:46 2024        
 
   CASSCF title (first line only):
       (No title given)                                                        
 
   STATE IRREP:                             1
   SPIN MULTIPLICITY:                       6
   ACTIVE ELECTRONS:                        7
   MAX RAS1 HOLES:                          0
   MAX RAS3 ELECTRONS:                      0
   NR OF CONFIG:                            6
 
   The following data are common to all the states:
   ------------------------------------------------
   (note: frozen counts as inactive, deleted as secondary)
 
      Nr of irreps: 1
 
                 Total     No./Irrep 
      Irrep                  1
                             a
 
      INACTIVE       5       5
      ACTIVE         6       6
      SECONDARY     17      17
      BASIS         28      28
 
      RAS1           0       0
      RAS2           6       6
      RAS3           0       0
 
        MATRIX ELEMENTS WILL BE COMPUTED FOR THE FOLLOWING ONE-ELECTRON OPERATOR
 S, UNLESS ZERO BY SYMMETRY.
   (Herm=Hermitian, Anti=Antihermitian, Sing=Singlet operator, Trip=Triplet oper
 ator)
     MLTPL  0   1 (HERMSING)     MLTPL  1   1 (HERMSING)     MLTPL  1   2 (HERMSING)
     MLTPL  1   3 (HERMSING)     MLTPL  2   1 (HERMSING)     MLTPL  2   2 (HERMSING)
     MLTPL  2   3 (HERMSING)     MLTPL  2   4 (HERMSING)     MLTPL  2   5 (HERMSING)
     MLTPL  2   6 (HERMSING)     VELOCITY   1 (ANTISING)     VELOCITY   2 (ANTISING)
     VELOCITY   3 (ANTISING)     ANGMOM     1 (ANTISING)     ANGMOM     2 (ANTISING)
     ANGMOM     3 (ANTISING)     MLTPV  2   1 (ANTISING)     MLTPV  2   2 (ANTISING)
     MLTPV  2   3 (ANTISING)     MLTPV  2   4 (ANTISING)     MLTPV  2   5 (ANTISING)
     MLTPV  2   6 (ANTISING)
 
       EIGENSTATES OF A SPIN-FREE HAMILTONIAN WILL BE COMPUTED BASED ON:
 
  A Hamiltonian matrix computed by RASSI.
 
  Nr of states:                     2
 
   State:        1   2
  JobIph:        1   1
 Root nr:        1   2
 
  HAMILTONIAN MATRIX FOR THE ORIGINAL STATES:
 
  Diagonal, with energies
   -397.86576639   -397.50052345
 
      OVERLAP MATRIX FOR THE ORIGINAL STATES:
 
  Diagonal, with elements
      1.00000000      1.00000000
 
++ Matrix elements for input states
   --------------------------------
 
  MATRIX ELEMENTS OF 1-ELECTRON OPERATORS
  FOR THE RASSCF INPUT WAVE FUNCTIONS:
 
 
 PROPERTY: MLTPL  0   COMPONENT:*   1
 ORIGIN    :   0.00000000D+00   0.00000000D+00   0.00000000D+00
 STATE     :       1                2
 
     1         1.00000000     -0.347053115E-15
     2       -0.347053115E-15   1.00000000    
 
 
 PROPERTY: MLTPL  1   COMPONENT:*   1
 ORIGIN    :   0.00000000D+00   0.00000000D+00   0.00000000D+00
 STATE     :       1                2
 
     1        0.709252593E-02  0.175119117E-02
     2        0.175119117E-02 -0.574532110E-02
 
 
 PROPERTY: MLTPL  1   COMPONENT:*   2
 ORIGIN    :   0.00000000D+00   0.00000000D+00   0.00000000D+00
 STATE     :       1                2
 
     1       -0.152611138E-02  0.686100006    
     2        0.686100006     -0.115852022    
 
 
 PROPERTY: MLTPL  1   COMPONENT:*   3
 ORIGIN    :   0.00000000D+00   0.00000000D+00   0.00000000D+00
 STATE     :       1                2
 
     1       -0.167941885      0.790599861    
     2        0.790599861     -0.306896877E-02
 
 
 PROPERTY: MLTPL  2   COMPONENT:*   1
 ORIGIN    :  -0.56035333D-02   0.00000000D+00   0.13406721D+00
 STATE     :       1                2
 
     1        -8.45517002     -0.972928498E-01
     2       -0.972928498E-01  -8.27214846    
 
 
 PROPERTY: MLTPL  2   COMPONENT:*   2
 ORIGIN    :  -0.56035333D-02   0.00000000D+00   0.13406721D+00
 STATE     :       1                2
 
     1       -0.449045780E-01  0.308952948E-03
     2        0.308952948E-03 -0.379632653E-01
 
 
 PROPERTY: MLTPL  2   COMPONENT:*   3
 ORIGIN    :  -0.56035333D-02   0.00000000D+00   0.13406721D+00
 STATE     :       1                2
 
     1        0.608288853E-01 -0.427930798E-03
     2       -0.427930798E-03  0.482982376E-01
 
 
 PROPERTY: MLTPL  2   COMPONENT:*   4
 ORIGIN    :  -0.56035333D-02   0.00000000D+00   0.13406721D+00
 STATE     :       1                2
 
     1        -9.33157595      0.109811943    
     2        0.109811943      -10.0253747    
 
 
 PROPERTY: MLTPL  2   COMPONENT:*   5
 ORIGIN    :  -0.56035333D-02   0.00000000D+00   0.13406721D+00
 STATE     :       1                2
 
     1       -0.706173945E-02  0.243883208    
     2        0.243883208      -1.23337165    
 
 
 PROPERTY: MLTPL  2   COMPONENT:*   6
 ORIGIN    :  -0.56035333D-02   0.00000000D+00   0.13406721D+00
 STATE     :       1                2
 
     1        -9.89696524      0.208536003    
     2        0.208536003      -10.9056704    
 
 
 PROPERTY: VELOCITY   COMPONENT:*   1
 ORIGIN    :   0.00000000D+00   0.00000000D+00   0.00000000D+00
 STATE     :       1                2
 
     1       -0.658919028E-18 -0.622467795E-03
     2        0.622467795E-03  0.117721164E-17
 
 
 PROPERTY: VELOCITY   COMPONENT:*   2
 ORIGIN    :   0.00000000D+00   0.00000000D+00   0.00000000D+00
 STATE     :       1                2
 
     1       -0.423641575E-16 -0.249804360    
     2        0.249804360     -0.124887632E-18
 
 
 PROPERTY: VELOCITY   COMPONENT:*   3
 ORIGIN    :   0.00000000D+00   0.00000000D+00   0.00000000D+00
 STATE     :       1                2
 
     1       -0.668734030E-16 -0.288209727    
     2        0.288209727     -0.722642693E-16
 
 
 PROPERTY: ANGMOM     COMPONENT:*   1
 ORIGIN    :   0.00000000D+00   0.00000000D+00   0.00000000D+00
 STATE     :       1                2
 
     1       -0.726125016E-16 -0.105124399    
     2        0.105124399      0.335738069E-16
 
 
 PROPERTY: ANGMOM     COMPONENT:*   2
 ORIGIN    :   0.00000000D+00   0.00000000D+00   0.00000000D+00
 STATE     :       1                2
 
     1       -0.280417482E-17  0.537273231E-02
     2       -0.537273231E-02 -0.971209640E-18
 
 
 PROPERTY: ANGMOM     COMPONENT:*   3
 ORIGIN    :   0.00000000D+00   0.00000000D+00   0.00000000D+00
 STATE     :       1                2
 
     1        0.176323860E-16 -0.442974433E-02
     2        0.442974433E-02 -0.195340326E-16
 
 
 PROPERTY: MLTPV  2   COMPONENT:*   1
 ORIGIN    :  -0.56035333D-02   0.00000000D+00   0.13406721D+00
 STATE     :       1                2
 
     1       -0.186383526E-15 -0.108544216E-01
     2        0.108544216E-01  0.233489969E-15
 
 
 PROPERTY: MLTPV  2   COMPONENT:*   2
 ORIGIN    :  -0.56035333D-02   0.00000000D+00   0.13406721D+00
 STATE     :       1                2
 
     1        0.258344271E-17 -0.170725253E-03
     2        0.170725253E-03 -0.590071144E-19
 
 
 PROPERTY: MLTPV  2   COMPONENT:*   3
 ORIGIN    :  -0.56035333D-02   0.00000000D+00   0.13406721D+00
 STATE     :       1                2
 
     1       -0.414820377E-17 -0.103622536E-03
     2        0.103622536E-03  0.578418544E-17
 
 
 PROPERTY: MLTPV  2   COMPONENT:*   4
 ORIGIN    :  -0.56035333D-02   0.00000000D+00   0.13406721D+00
 STATE     :       1                2
 
     1       -0.119036293E-15  0.441007826E-01
     2       -0.441007826E-01  0.298210944E-15
 
 
 PROPERTY: MLTPV  2   COMPONENT:*   5
 ORIGIN    :  -0.56035333D-02   0.00000000D+00   0.13406721D+00
 STATE     :       1                2
 
     1       -0.277066369E-16  0.706725557E-01
     2       -0.706725557E-01  0.122551040E-15
 
 
 PROPERTY: MLTPV  2   COMPONENT:*   6
 ORIGIN    :  -0.56035333D-02   0.00000000D+00   0.13406721D+00
 STATE     :       1                2
 
     1       -0.143316994E-15  0.773010730E-01
     2       -0.773010730E-01  0.300524749E-15
 
--
 
::    RASSI State    1     Total energy:    -397.86576639287551
::    RASSI State    2     Total energy:    -397.50052345189090
 
 
 
      ****************************************************************************************************
      *                                                                                                  *
      *                                         Spin-free section                                        *
      *                                                                                                  *
      *                 Note: index according to input order, order according to energy.                 *
      *                                                                                                  *
      ****************************************************************************************************
 
 
 
  SPIN-FREE ENERGIES:
  (Shifted by EMIN (a.u.) =       -397.8657663929)
 
 SF State       Relative EMIN(au)   Rel lowest level(eV)    D:o, cm**(-1)
 
     1             0.0000000000        0.0000000000              0.0000
     2             0.3652429410        9.9387667408          80161.5598
 
++ Dipole transition strengths (spin-free states):
   -----------------------------------------------
     for osc. strength at least  1.00000000E-05
 
      From   To        Osc. strength     Einstein coefficients Ax, Ay, Az (sec-1)    Total A (sec-1)
     -----------------------------------------------------------------------------------------------
         1    2       2.66818351E-01  3.20060616E+03  4.91292308E+08  6.52346875E+08  1.14364238E+09
     -----------------------------------------------------------------------------------------------
--
 
++ Velocity transition strengths (spin-free states):
   -------------------------------------------------
     for osc. strength at least  1.00000000E-05
 
      From   To        Osc. strength     Einstein coefficients Ax, Ay, Az (sec-1)    Total A (sec-1)
     -----------------------------------------------------------------------------------------------
         1    2       2.65517250E-01  3.03134404E+03  4.88204168E+08  6.49858379E+08  1.13806558E+09
     -----------------------------------------------------------------------------------------------
--
 
++ Length and velocity gauge comparison (spin-free states):
   --------------------------------------------------------
 
 --------------------------------------------------
 A comparison between the dipole oscillator strengths in 
 length and velocity gauge will be performed
 
     All dipole oscillator differences above the tolerance of   1.00000000E-01  will be printed 
 
 Due to basis set deficiency these oscillator may be problematic 
 
 The tolerance is defined as ABS(1-O_l/O_v) 
 O_l : dipole oscillator strength in length gauge
 O_p : dipole oscillator strength in velocity gauge
 --------------------------------------------------
 
 No problematic oscillator strengths above the tolerance 
  0.100000000000000       have been found
 
--
 
 Electric-dipole - electric-octupole not included
 Electric-dipole - magnetic-quadrupole not included
 
 
      ****************************************************************************************************
      *                                                                                                  *
      *                                    Special properties section                                    *
      *                                                                                                  *
      ****************************************************************************************************
 
 
++ I/O STATISTICS
 
  I. General I/O information
  - - - - - - - - - - - - - - - - - - - - - - - - - - - - - - - - - - - - - - - - - - -
  Unit  Name          Flsize      Write/Read            MBytes           Write/Read
                      (MBytes)       Calls              In/Out           Time, sec.
  - - - - - - - - - - - - - - - - - - - - - - - - - - - - - - - - - - - - - - - - - - -
   1  ANNI              0.00 .       0/       0 .      0.0/      0.0 .       0/       0
   2  RUNFILE           0.24 .     112/    1344 .      0.8/      9.6 .       0/       0
   3  ONEINT            1.46 .       0/     254 .      0.0/    239.5 .       0/       0
   4  JOB001            1.18 .       0/      38 .      0.0/      0.2 .       0/       0
   5  CHRED             0.01 .       0/       6 .      0.0/      0.0 .       0/       0
   6  CHVEC1            0.36 .       0/       5 .      0.0/      0.4 .       0/       0
   7  CHORST            0.00 .       0/      12 .      0.0/      0.0 .       0/       0
   8  CHOMAP            0.00 .       0/       0 .      0.0/      0.0 .       0/       0
   9  CHODIAG           0.00 .       0/       1 .      0.0/      0.0 .       0/       0
  - - - - - - - - - - - - - - - - - - - - - - - - - - - - - - - - - - - - - - - - - - -
   *  TOTAL             3.25 .     112/    1660 .      0.8/    249.6 .       0/       0
  - - - - - - - - - - - - - - - - - - - - - - - - - - - - - - - - - - - - - - - - - - -
 
  II. I/O Access Patterns
  - - - - - - - - - - - - - - - - - - - -
  Unit  Name               % of random
                         Write/Read calls
  - - - - - - - - - - - - - - - - - - - -
   1  ANNI                 0.0/   0.0
   2  RUNFILE             28.6/  11.0
   3  ONEINT               0.0/  98.0
   4  JOB001               0.0/  81.6
   5  CHRED                0.0/  16.7
   6  CHVEC1               0.0/   0.0
   7  CHORST               0.0/   0.0
   8  CHOMAP               0.0/   0.0
   9  CHODIAG              0.0/   0.0
  - - - - - - - - - - - - - - - - - - - -
--
[...]
::    SO-RASSI State   19     Total energy:    -397.50052344574294
::    SO-RASSI State   20     Total energy:    -397.50052344574294
::    SO-RASSI State   21     Total energy:    -397.50052343454774
::    SO-RASSI State   22     Total energy:    -397.50052343454774
 
 
   Eigenvalues of complex Hamiltonian:
   -----------------------------------
  (Shifted by EMIN (a.u.) =       -398.2917754924)
 
 SO State       Relative EMIN(au)   Rel lowest level(eV)    D:o, cm**(-1)
 
     1            -0.0000544215        0.0000000000              0.0000
     2            -0.0000544215        0.0000000000              0.0000
     3            -0.0000136768        0.0011087198              8.9424
     4            -0.0000136768        0.0011087198              8.9424
     5            -0.0000000000        0.0014808858             11.9441
     6             0.0077436786        0.2121971152           1711.4852
     7             0.0077573555        0.2125692812           1714.4869
     8             0.0077573555        0.2125692812           1714.4869
     9             0.0077981002        0.2136780010           1723.4293
    10             0.0077981002        0.2136780010           1723.4293
    11             0.4260090822       11.5937785660          93510.1304
    12             0.4260090822       11.5937785660          93510.1304
    13             0.4260090934       11.5937788706          93510.1329
    14             0.4260090934       11.5937788706          93510.1329
    15             0.4260090990       11.5937790229          93510.1341
    16             0.4260090990       11.5937790229          93510.1341
    17             0.7912520410       21.5325457916         173671.6942
    18             0.7912520410       21.5325457916         173671.6942
    19             0.7912520466       21.5325459440         173671.6954
    20             0.7912520466       21.5325459440         173671.6954
    21             0.7912520578       21.5325462486         173671.6979
    22             0.7912520578       21.5325462486         173671.6979
 
 
 Weights of the five most important spin-orbit-free states for each spin-orbit s
 tate.
 
 SO State  Total energy (au)           Spin-free states, spin, and weights
 -------------------------------------------------------------------------------
 ------------------------
    1        -0.000054       1 2.0  0.9931    2 2.0  0.0069    4 2.5  0.0000    3 2.5  0.0000
    2        -0.000054       1 2.0  0.9931    2 2.0  0.0069    4 2.5  0.0000    3 2.5  0.0000
    3        -0.000014       1 2.0  0.9982    2 2.0  0.0018    4 2.5  0.0000    3 2.5  0.0000
    4        -0.000014       1 2.0  0.9982    2 2.0  0.0018    4 2.5  0.0000    3 2.5  0.0000
    5        -0.000000       1 2.0  1.0000    2 2.0  0.0000    4 2.5  0.0000    3 2.5  0.0000
    6         0.007744       2 2.0  1.0000    1 2.0  0.0000    4 2.5  0.0000    3 2.5  0.0000
    7         0.007757       2 2.0  0.9982    1 2.0  0.0018    4 2.5  0.0000    3 2.5  0.0000
    8         0.007757       2 2.0  0.9982    1 2.0  0.0018    4 2.5  0.0000    3 2.5  0.0000
    9         0.007798       2 2.0  0.9931    1 2.0  0.0069    4 2.5  0.0000    3 2.5  0.0000
   10         0.007798       2 2.0  0.9931    1 2.0  0.0069    4 2.5  0.0000    3 2.5  0.0000
   11         0.426009       3 2.5  1.0000    4 2.5  0.0000    2 2.0  0.0000    1 2.0  0.0000
   12         0.426009       3 2.5  1.0000    4 2.5  0.0000    2 2.0  0.0000    1 2.0  0.0000
   13         0.426009       3 2.5  1.0000    4 2.5  0.0000    2 2.0  0.0000    1 2.0  0.0000
   14         0.426009       3 2.5  1.0000    4 2.5  0.0000    2 2.0  0.0000    1 2.0  0.0000
   15         0.426009       3 2.5  1.0000    4 2.5  0.0000    2 2.0  0.0000    1 2.0  0.0000
   16         0.426009       3 2.5  1.0000    4 2.5  0.0000    2 2.0  0.0000    1 2.0  0.0000
   17         0.791252       4 2.5  1.0000    3 2.5  0.0000    2 2.0  0.0000    1 2.0  0.0000
   18         0.791252       4 2.5  1.0000    3 2.5  0.0000    2 2.0  0.0000    1 2.0  0.0000
   19         0.791252       4 2.5  1.0000    3 2.5  0.0000    2 2.0  0.0000    1 2.0  0.0000
   20         0.791252       4 2.5  1.0000    3 2.5  0.0000    2 2.0  0.0000    1 2.0  0.0000
   21         0.791252       4 2.5  1.0000    3 2.5  0.0000    2 2.0  0.0000    1 2.0  0.0000
   22         0.791252       4 2.5  1.0000    3 2.5  0.0000    2 2.0  0.0000    1 2.0  0.0000
 -------------------------------------------------------------------------------
 ------------------------
 
 
      ****************************************************************************************************
      *                                                                                                  *
      *                                    Special properties section                                    *
      *                                                                                                  *
      ****************************************************************************************************
 
 
++ Dipole transition strengths (SO states):
   ----------------------------------------
        for osc. strength at least   1.00000000E-05
 
      From   To        Osc. strength     Einstein coefficients Ax, Ay, Az (sec-1)    Total A (sec-1)
     -----------------------------------------------------------------------------------------------
         1   10       3.54445575E-04  6.76745681E-01  2.86607445E+01  6.72891467E+02  7.02228957E+02
         2    9       3.54445575E-04  6.76745681E-01  2.86607445E+01  6.72891467E+02  7.02228957E+02
         3    7       3.50354164E-04  6.55122057E-01  2.77449178E+01  6.51391251E+02  6.79791291E+02
         4    8       3.50354164E-04  6.55122057E-01  2.77449178E+01  6.51391251E+02  6.79791291E+02
         5    6       3.49732284E-04  6.49349879E-01  2.74971954E+01  6.45669344E+02  6.73815889E+02
        11   21       3.41757908E-05  4.18184327E-01  6.29276398E+04  8.35569574E+04  1.46485015E+05
        11   22       2.66784201E-01  3.20019712E+03  4.91229520E+08  6.52263504E+08  1.14349622E+09
        12   21       2.66784201E-01  3.20019712E+03  4.91229520E+08  6.52263504E+08  1.14349622E+09
        12   22       3.41757902E-05  4.18184320E-01  6.29276387E+04  8.35569559E+04  1.46485013E+05
        13   19       2.66135107E-01  3.19241056E+03  4.90034284E+08  6.50676448E+08  1.14071392E+09
        13   20       6.83252535E-04  8.19887952E+00  1.25807208E+06  1.67049119E+06  2.92857147E+06
        14   19       6.83252537E-04  8.19887954E+00  1.25807208E+06  1.67049120E+06  2.92857147E+06
        14   20       2.66135107E-01  3.19241056E+03  4.90034285E+08  6.50676449E+08  1.14071393E+09
        15   17       2.66303451E-01  3.19442973E+03  4.90344227E+08  6.51087995E+08  1.14143542E+09
        15   18       5.14899489E-04  6.17677805E+00  9.48083805E+05  1.25888296E+06  2.20697295E+06
        16   17       5.14899484E-04  6.17677800E+00  9.48083796E+05  1.25888295E+06  2.20697292E+06
        16   18       2.66303452E-01  3.19442974E+03  4.90344228E+08  6.51087997E+08  1.14143542E+09
     -----------------------------------------------------------------------------------------------
--
 
++ Velocity transition strengths (SO states):
   ------------------------------------------
        for osc. strength at least   1.00000000E-05
 
      From   To        Osc. strength     Einstein coefficients Ax, Ay, Az (sec-1)    Total A (sec-1)
     -----------------------------------------------------------------------------------------------
         1    9       2.23584393E-05  8.72112078E-02  4.32271936E+01  9.82222252E-01  4.42966271E+01
         1   10       3.86748435E-02  1.50854886E+02  7.47728824E+04  1.69901358E+03  7.66227509E+04
         2    9       3.86748435E-02  1.50854886E+02  7.47728824E+04  1.69901358E+03  7.66227509E+04
         2   10       2.23584393E-05  8.72112078E-02  4.32271936E+01  9.82222252E-01  4.42966271E+01
         3    7       3.98573168E-02  1.52257261E+02  7.54679848E+04  1.71480792E+03  7.73350499E+04
         3    8       7.00673298E-05  2.67661262E-01  1.32669246E+02  3.01455345E+00  1.35951461E+02
         4    7       7.00673298E-05  2.67661262E-01  1.32669246E+02  3.01455345E+00  1.35951461E+02
         4    8       3.98573168E-02  1.52257261E+02  7.54679848E+04  1.71480792E+03  7.73350499E+04
         5    6       4.03519978E-02  1.53063700E+02  7.58677050E+04  1.72389049E+03  7.77446592E+04
        11   21       3.40086557E-05  3.88268390E-01  6.25314196E+04  8.32368292E+04  1.45768637E+05
        11   22       2.65483165E-01  3.03095548E+03  4.88141589E+08  6.49775079E+08  1.13791970E+09
        12   21       2.65483166E-01  3.03095548E+03  4.88141589E+08  6.49775079E+08  1.13791970E+09
        12   22       3.40086551E-05  3.88268384E-01  6.25314185E+04  8.32368278E+04  1.45768635E+05
        13   19       2.64837302E-01  3.02358145E+03  4.86953986E+08  6.48194236E+08  1.13515125E+09
        13   20       6.79920493E-04  7.76248275E+00  1.25016375E+06  1.66411809E+06  2.91428960E+06
        14   19       6.79920495E-04  7.76248277E+00  1.25016375E+06  1.66411809E+06  2.91428961E+06
        14   20       2.64837303E-01  3.02358145E+03  4.86953987E+08  6.48194238E+08  1.13515125E+09
        15   17       2.65004858E-01  3.02549421E+03  4.87262040E+08  6.48604293E+08  1.13586936E+09
        15   18       5.12388632E-04  5.84981290E+00  9.42124351E+05  1.25408066E+06  2.19621086E+06
        16   17       5.12388627E-04  5.84981284E+00  9.42124342E+05  1.25408064E+06  2.19621084E+06
        16   18       2.65004859E-01  3.02549422E+03  4.87262041E+08  6.48604295E+08  1.13586936E+09
     -----------------------------------------------------------------------------------------------
--
 
++ Length and velocity gauge comparison (SO states):
 
 --------------------------------------------------
 A comparison between the dipole oscillator strengths in 
 length and velocity gauge will be performed
 
     All dipole oscillator differences above the tolerance of   1.00000000E-01  will be printed 
 
 Due to basis set deficiency these oscillator may be problematic 
 
 The tolerance is defined as ABS(1-O_l/O_v) 
 O_l : dipole oscillator strength in length gauge
 O_p : dipole oscillator strength in velocity gauge
 --------------------------------------------------
 
  Problematic transitions have been found
 
      From   To       Difference (%) Osc. st. (len.) Osc. st. (vel.)
     ---------------------------------------------------------------
         1    9      --------------- below threshold  2.23584393E-05
         1   10            99.083524  3.54445575E-04  3.86748435E-02
         2    9            99.083524  3.54445575E-04  3.86748435E-02
         2   10      --------------- below threshold  2.23584393E-05
         3    7            99.120979  3.50354164E-04  3.98573168E-02
         3    8      --------------- below threshold  7.00673298E-05
         4    7      --------------- below threshold  7.00673298E-05
         4    8            99.120979  3.50354164E-04  3.98573168E-02
         5    6            99.133296  3.49732284E-04  4.03519978E-02
     ---------------------------------------------------------------
 
 Number of problematic transitions =                      9
 
--
 
 Electric-dipole - electric-octupole not included
 
++ Dyson amplitudes (SO states):
   -----------------------------------------------
 for Dyson intensities at least  1.000000000000000E-005
 
        From      To        BE (eV)       Dyson intensity
   -----------------------------------------------------------------------------------------
           1      11         11.594           0.59026E+01
           1      12         11.594           0.63512E+01
           1      13         11.594           0.14100E+00
           1      14         11.594           0.81834E-01
           1      15         11.594           0.93116E+00
           1      16         11.594           0.10458E+01
           1      17         21.533           0.61907E-02
           1      18         21.533           0.58482E-02
           1      19         21.533           0.86727E-03
           1      20         21.533           0.48774E-03
           1      21         21.533           0.37987E-01
           1      22         21.533           0.36944E-01
           2      11         11.594           0.43679E+01
           2      12         11.594           0.46998E+01
           2      13         11.594           0.10434E+00
           2      14         11.594           0.60556E-01
           2      15         11.594           0.68905E+00
           2      16         11.594           0.77387E+00
           2      17         21.533           0.68124E-02
           2      18         21.533           0.64359E-02
           2      19         21.533           0.95440E-03
           2      20         21.533           0.53708E-03
           2      21         21.533           0.41773E-01
           2      22         21.533           0.40625E-01
           3      11         11.593           0.57955E-01
           3      12         11.593           0.62359E-01
           3      13         11.593           0.13843E-02
           3      14         11.593           0.80346E-03
           3      15         11.593           0.91424E-02
           3      16         11.593           0.10268E-01
           3      21         21.531           0.43536E-04
           3      22         21.531           0.42355E-04
           4      11         11.593           0.10891E-01
           4      12         11.593           0.11719E-01
           4      13         11.593           0.26016E-03
           4      14         11.593           0.15099E-03
           4      15         11.593           0.17181E-02
           4      16         11.593           0.19296E-02
           4      17         21.531           0.18739E-04
           4      18         21.531           0.17702E-04
           4      21         21.531           0.11485E-03
           4      22         21.531           0.11169E-03
           5      11         11.592           0.11917E+01
           5      12         11.592           0.12823E+01
           5      13         11.592           0.28466E-01
           5      14         11.592           0.16521E-01
           5      15         11.592           0.18799E+00
           5      16         11.592           0.21114E+00
           5      17         21.531           0.84685E-04
           5      18         21.531           0.79897E-04
           5      19         21.531           0.11977E-04
           5      21         21.531           0.51708E-03
           5      22         21.531           0.50307E-03
           6      11         11.382           0.11923E+01
           6      12         11.382           0.12829E+01
           6      13         11.382           0.28485E-01
           6      14         11.382           0.16524E-01
           6      15         11.382           0.18809E+00
           6      16         11.382           0.21123E+00
           6      17         21.320           0.20534E+00
           6      18         21.320           0.19404E+00
           6      19         21.320           0.28791E-01
           6      20         21.320           0.16223E-01
           6      21         21.320           0.12549E+01
           6      22         21.320           0.12203E+01
           7      11         11.381           0.55885E-01
           7      12         11.381           0.60131E-01
           7      13         11.381           0.13351E-02
           7      14         11.381           0.77449E-03
           7      15         11.381           0.88158E-02
           7      16         11.381           0.99008E-02
           7      17         21.320           0.96964E-02
           7      18         21.320           0.91627E-02
           7      19         21.320           0.13595E-02
           7      20         21.320           0.76609E-03
           7      21         21.320           0.59258E-01
           7      22         21.320           0.57624E-01
           8      11         11.381           0.12996E-01
           8      12         11.381           0.13984E-01
           8      13         11.381           0.31047E-03
           8      14         11.381           0.18010E-03
           8      15         11.381           0.20501E-02
           8      16         11.381           0.23024E-02
           8      17         21.320           0.21453E-02
           8      18         21.320           0.20272E-02
           8      19         21.320           0.30080E-03
           8      20         21.320           0.16950E-03
           8      21         21.320           0.13110E-01
           8      22         21.320           0.12749E-01
           9      11         11.380           0.46153E+01
           9      12         11.380           0.49660E+01
           9      13         11.380           0.11026E+00
           9      14         11.380           0.63960E-01
           9      15         11.380           0.72805E+00
           9      16         11.380           0.81765E+00
           9      17         21.319           0.78836E+00
           9      18         21.319           0.74497E+00
           9      19         21.319           0.11054E+00
           9      20         21.319           0.62288E-01
           9      21         21.319           0.48179E+01
           9      22         21.319           0.46850E+01
          10      11         11.380           0.56608E+01
          10      12         11.380           0.60910E+01
          10      13         11.380           0.13524E+00
          10      14         11.380           0.78449E-01
          10      15         11.380           0.89298E+00
          10      16         11.380           0.10029E+01
          10      17         21.319           0.96907E+00
          10      18         21.319           0.91574E+00
          10      19         21.319           0.13588E+00
          10      20         21.319           0.76565E-01
          10      21         21.319           0.59223E+01
          10      22         21.319           0.57589E+01
 
 
++ I/O STATISTICS
 
  I. General I/O information
  - - - - - - - - - - - - - - - - - - - - - - - - - - - - - - - - - - - - - - - - - - -
  Unit  Name          Flsize      Write/Read            MBytes           Write/Read
                      (MBytes)       Calls              In/Out           Time, sec.
  - - - - - - - - - - - - - - - - - - - - - - - - - - - - - - - - - - - - - - - - - - -
   1  ANNI              0.00 .       0/       0 .      0.0/      0.0 .       0/       0
   2  RUNFILE           0.26 .     322/   13407 .      2.3/     97.1 .       0/       0
   3  ONEINT            1.46 .       0/     586 .      0.0/    537.2 .       0/       0
   4  JOB001            1.18 .       0/      45 .      0.0/      1.1 .       0/       0
   5  JOB002            1.18 .       0/      45 .      0.0/      1.1 .       0/       0
  - - - - - - - - - - - - - - - - - - - - - - - - - - - - - - - - - - - - - - - - - - -
   *  TOTAL             4.08 .     322/   14083 .      2.3/    636.4 .       0/       0
  - - - - - - - - - - - - - - - - - - - - - - - - - - - - - - - - - - - - - - - - - - -
 
  II. I/O Access Patterns
  - - - - - - - - - - - - - - - - - - - -
  Unit  Name               % of random
                         Write/Read calls
  - - - - - - - - - - - - - - - - - - - -
   1  ANNI                 0.0/   0.0
   2  RUNFILE             28.6/  10.9
   3  ONEINT               0.0/  96.8
   4  JOB001               0.0/  77.8
   5  JOB002               0.0/  77.8
  - - - - - - - - - - - - - - - - - - - -
--
--- Stop Module: rassi at Wed Mar 27 17:10:55 2024 /rc=_RC_ALL_IS_WELL_ ---
--- Module rassi spent 1 second ---

.##################.
.# Happy landing! #.
.##################.

    Timing: Wall=9.28 User=8.24 System=0.91
