   This run of MOLCAS is using the pymolcas driver

                             OPE
                             OPE          NMOL  CASOP  ENMOLC A   SO
                 OPE        NMOLC        AS  OP EN  MO LC     AS  OP
                OPENM       OL CA        SO  PE NM  OL CA     SOP EN
                OP EN      MO   LC       AS  OP ENMOL  CASO   PENMOL
                OP  EN     MO   LC       AS  OP EN     MO     LC ASO
               OP   E  NMOL  C  AS       OP  EN MO     LC     AS  OP
               OP  E   NMO   LC AS        OPEN  MO     LCASOP EN   M
               O  PEN   MO  LCA  SO
            OPE   NMO   L   CAS    OP
        OPENMOL  CASOP     ENMOL   CASOPE
     OPENMOLCA   SOPENMOLCASOPEN   MOLCASOPE
    OPENMOLCAS   OP           EN   MOL    CAS
    OPENMOLCAS       OP  ENM        O     LCA
    OPENMOLCAS    OPEN  MOLCASO     P  E  NMO
    OPENMOLCAS     OP               E  N  MOL
    OPENMOLCA   SO           PENM   O  L  CAS    OPEN    MO    LCAS
    OPENMOLCA   SOP           ENM   O  L  CAS   OP  EN  MOLC  AS   O
    OPENMOLCA   SOPE           NM      O  LCA   S      OP  EN MO
    OPENMOLC                AS         O  PEN   M      OL  CA  SOPE
    OPENMO        LCASOPE  NMOL        C  ASO   P      ENMOLC     AS
    OPE     NMO      LCA  SO     P     E   NM   OL  CA SO  PE N   MO
          OPENMOLCA            SOPE   NMO        LCAS  O    P  ENMO
     OPENMOLCASOPENMOLCASOPENMOLCASOPENMOLCA
        OPENMOLCASOPENMOLCASOPENMOLCASOPE
            OPENMOLCASOPENMOLCASOPENM
               OPENMOLCASOPENMOLCA        version: v23.10
                   OPENMOLCASO
                       OPE                tag:

 OpenMolcas is free software; you can redistribute it and/or modify it
 under the terms of the GNU Lesser General Public License version 2.1.
 OpenMolcas is distributed in the hope that it will be useful, but it
 is provided "as is" and without any express or implied warranties.
 For more details see the full text of the license in the file
 LICENSE or in <http://www.gnu.org/licenses/>.

                 Copyright (C) The OpenMolcas Authors
           For the author list and the recommended citation,
                   consult the file CONTRIBUTORS.md

           *************************************************
           * pymolcas version py2.25                       *
           *   build 2b27fa14244bdc32cb1957e6230cd793      *
           *   (after the EMIL interpreter by V. Veryazov) *
           *************************************************

configuration info
------------------
Host name: manganese.itc.univie.ac.at (Linux)
C Compiler ID: Clang
C flags: -std=gnu99
Fortran Compiler ID: Intel
Fortran flags: -fpp -i8 -heap-arrays
Definitions: _MOLCAS_;_I8_;_LINUX_
Parallel: OFF (GA=OFF)


   ---------------------------------------------------------------------------
  |
  |           Project: MOLCAS
  |    Submitted from: /public/manganese/scratch/tmp/sascha.925337/WORK/master
  |      Scratch area: /public/manganese/scratch/tmp/sascha.925337/WORK/master
  |   Save outputs to: WORKDIR
  |            Molcas: /usr/license/openmolcas/v23.10
  |
  | Scratch area is NOT empty
  |
  |        MOLCASMEM = 10000
  |    MOLCAS_DRIVER = /usr/license/openmolcas/v23.10/pymolcas
  |    MOLCAS_NPROCS = 1
  |    MOLCAS_SOURCE = /usr/license/openmolcas/v23.10
  | MOLCAS_STRUCTURE = 0
  |
   ---------------------------------------------------------------------------

++ ---------   Input file   ---------

&GATEWAY
COORD=MOLCAS.xyz
GROUP=NOSYM
BASIS=cc-pvdz
AMFI
angmom
0 0 0
BASLIB
/user/sascha/development/eci/sharc_main/examples/SHARC_MOLCAS/basisset

RICD
CDTHreshold=0.0001

&SEWARD

&RASSCF
SPIN=1
NACTEL=8 0 0
INACTIVE=5
RAS2=6
ITERATIONS=200,100
CIROOT=6 6 1
ORBLISTING=NOTHING
PRWF=0.1
THRS=0.000000010000 0.000100000000 0.000100000000

>>> COPY MOLCAS.JobIph MOLCAS.1.JobIph

&RASSCF
SPIN=2
NACTEL=7 0 0
INACTIVE=5
RAS2=6
ITERATIONS=200,100
CIROOT=4 4 1
ORBLISTING=NOTHING
PRWF=0.1
THRS=0.000000010000 0.000100000000 0.000100000000

>>> COPY MOLCAS.JobIph MOLCAS.2.JobIph

&RASSCF
SPIN=3
NACTEL=8 0 0
INACTIVE=5
RAS2=6
ITERATIONS=200,100
CIROOT=4 4 1
ORBLISTING=NOTHING
PRWF=0.1
THRS=0.000000010000 0.000100000000 0.000100000000

>>> COPY MOLCAS.JobIph MOLCAS.3.JobIph

>>> COPY MOLCAS.1.JobIph JOB001

>>> COPY MOLCAS.2.JobIph JOB002

>>> COPY MOLCAS.3.JobIph JOB003

&RASSI
NROFJOBIPHS
3 6 2 1
1 2 3 4 5 6
1 2
1
MEIN
SPINORBIT
SOCOUPLING=0.0d0
EJOB

-- ----------------------------------

--- Start Module: gateway at Fri Mar 22 16:31:26 2024 ---
 
()()()()()()()()()()()()()()()()()()()()()()()()()()()()()()()()()()()()()()()()()()()()()()()()()()

                                              &GATEWAY

                                   only a single process is used
                       available to each process: 10 GB of memory, 1 thread?
                                            pid: 2115096
()()()()()()()()()()()()()()()()()()()()()()()()()()()()()()()()()()()()()()()()()()()()()()()()()()
 
 
 
 Basis Set     1 Label: S.CC-PVDZ
 Basis set is read from library:/user/sascha/development/eci/sharc_main/examples/SHARC_MOLCAS/basisset 
 
 
 Basis Set     2 Label: H.CC-PVDZ
 Basis set is read from library:/user/sascha/development/eci/sharc_main/examples/SHARC_MOLCAS/basisset 
 
++    Symmetry information:
      ---------------------
 
                    Character Table for C1 
 
                             E  
                    a        1  x, y, xy, Rz, z, xz, Ry, yz, Rx, I
--
 
 
++    Basis set information:
      ----------------------
 
 
      Basis set label: S.CC-PVDZ.........
 
      Electronic valence basis set:
      ------------------
      Associated Effective Charge  16.000000 au
      Associated Actual Charge     16.000000 au
      Nuclear Model: Point charge
 
      Shell  nPrim  nBasis  Cartesian Spherical Contaminant
         s      12       4        X                  
         p       8       3        X                  
         d       1       1                 X         
 
 
      Basis set label: H.CC-PVDZ.........
 
      Electronic valence basis set:
      ------------------
      Associated Effective Charge   1.000000 au
      Associated Actual Charge      1.000000 au
      Nuclear Model: Point charge
 
      Shell  nPrim  nBasis  Cartesian Spherical Contaminant
         s       4       2        X                  
         p       1       1        X                  
--
 
 
++    Molecular structure info:
      -------------------------
 
                    ************************************************ 
                    **** Cartesian Coordinates / Bohr, Angstrom **** 
                    ************************************************ 
 
     Center  Label                x              y              z                     x              y              z
        1      S1               0.000000       0.000000       0.001589              0.000000       0.000000       0.000841
        2      H2               0.000000       1.842103       2.235421              0.000000       0.974799       1.182934
        3      H3              -0.188973      -1.842103       2.235421             -0.100000      -0.974799       1.182934
 
                    *************************************** 
                    *    InterNuclear Distances / Bohr    * 
                    *************************************** 
 
               1 S1            2 H2            3 H3    
    1 S1       0.000000
    2 H2       2.895401        0.000000
    3 H3       2.901562        3.689050        0.000000
 
                    ******************************************* 
                    *    InterNuclear Distances / Angstrom    * 
                    ******************************************* 
 
               1 S1            2 H2            3 H3    
    1 S1       0.000000
    2 H2       1.532180        0.000000
    3 H3       1.535440        1.952161        0.000000
 
                    ************************************** 
                    *    Valence Bond Angles / Degree    * 
                    ************************************** 
                          Atom centers                 Phi
                      2 H2       1 S1       3 H3        79.04
--
 
 
            Nuclear Potential Energy             11.31134847 au
 
--- Stop Module: gateway at Fri Mar 22 16:31:26 2024 /rc=_RC_ALL_IS_WELL_ ---

--- Start Module: seward at Fri Mar 22 16:31:26 2024 ---
 
()()()()()()()()()()()()()()()()()()()()()()()()()()()()()()()()()()()()()()()()()()()()()()()()()()

                                              &SEWARD

                                   only a single process is used
                       available to each process: 10 GB of memory, 1 thread?
                                            pid: 2115099
()()()()()()()()()()()()()()()()()()()()()()()()()()()()()()()()()()()()()()()()()()()()()()()()()()
 
               SEWARD will generate:
                  Multipole Moment integrals up to order  2
                  Kinetic Energy integrals
                  Nuclear Attraction integrals (point charge)
                  One-Electron Hamiltonian integrals
                  Velocity integrals
                  Orbital angular momentum around ( 0.0000  0.0000  0.0000 )
                  Velocity quadrupole around (-0.0056  0.0000  0.1341 )
                  Atomic mean-field integrals
                  RI decomposed two-electron repulsion integrals stored Cholesky style
                   - acCD auxiliary basis
                   - CD Threshold:   0.10E-03
 
                   Integrals are discarded if absolute value <: 0.10E-13
                   Integral cutoff threshold is set to       <: 0.10E-15
 
            Nuclear Potential Energy             11.31134847 au
 
 
      Basis set specifications :
      Symmetry species         a  
      Basis functions           28
 
 
      Input file to MOLDEN was generated!
 
--- Stop Module: seward at Fri Mar 22 16:31:27 2024 /rc=_RC_ALL_IS_WELL_ ---

*** symbolic link created: INPORB -> MOLCAS.GssOrb
--- Start Module: rasscf at Fri Mar 22 16:31:27 2024 ---
 
()()()()()()()()()()()()()()()()()()()()()()()()()()()()()()()()()()()()()()()()()()()()()()()()()()

                                              &RASSCF

                                   only a single process is used
                       available to each process: 10 GB of memory, 1 thread?
                                            pid: 2115104
()()()()()()()()()()()()()()()()()()()()()()()()()()()()()()()()()()()()()()()()()()()()()()()()()()
 
 
      Header of the ONEINT file:
      --------------------------
      
      Integrals generated by Gateway/Seward, Fri Mar 22 16:31:27 2024
 
 
      OrdInt status: non-squared
 
 
      Cartesian coordinates in Angstrom:
      -----------------------------------------------------
      No.  Label        X            Y            Z        
      -----------------------------------------------------
       1   S1         0.00000000   0.00000000   0.00084100
       2   H2         0.00000000   0.97479900   1.18293400
       3   H3        -0.10000000  -0.97479900   1.18293400
      -----------------------------------------------------
      Nuclear repulsion energy =   11.31134847
 
++    Wave function specifications:
      -----------------------------
 
      Number of closed shell electrons          10
      Number of electrons in active shells       8
      Max number of holes in RAS1 space          0
      Max nr of electrons in RAS3 space          0
      Number of inactive orbitals                5
      Number of active orbitals                  6
      Number of secondary orbitals              17
      Spin quantum number                      0.0
      State symmetry                             1
--
 
++    Orbital specifications:
      -----------------------
 
      Symmetry species                           1
                                                 a
      Frozen orbitals                            0
      Inactive orbitals                          5
      Active orbitals                            6
      RAS1 orbitals                              0
      RAS2 orbitals                              6
      RAS3 orbitals                              0
      Secondary orbitals                        17
      Deleted orbitals                           0
      Number of basis functions                 28
--
 
++    CI expansion specifications:
      ----------------------------
 
      Number of CSFs                           105
      Number of determinants                   120
      Number of root(s) required                 6
      Root chosen for geometry opt.              6
      CI roots used                              1     2     3     4     5     6
      weights                                0.167 0.167 0.167 0.167 0.167 0.167
      highest root included in the CI            6
      max. size of the explicit Hamiltonian    105
--
 
++    Optimization specifications:
      ----------------------------
 
      RASSCF algorithm: LK RI/DF
      Maximum number of macro iterations       200
      Maximum number of SX iterations          100
      Threshold for RASSCF energy            0.100E-07
      Threshold for max MO rotation          0.100E-03
      Threshold for max BLB element          0.100E-03
      Level shift parameter                  0.500E+00
      Make Quasi-Newton update
--
 
      Orbitals from runfile: guessorb orbitals
      The MO-coefficients are taken from guessorb on runfile
 
      Total molecular charge    0.00
 
      ************************************************************************************************************************
      *                                                                                                                      *
      *                                            Wave function control section                                             *
      *                                                                                                                      *
      ************************************************************************************************************************
 
 
                                         RASSCF iterations: Energy and convergence statistics
                                         ----------------------------------------------------
 
      Iter CI   SX   CI       RASSCF       Energy    max ROT     max BLB   max BLB  Level Ln srch  Step   QN   Walltime
          iter iter root      energy       change     param      element    value   shift minimum  type update hh:mm:ss
 Nr of preliminary CI iterations:   1
        1   1   84    0  -398.36538354    0.00E+00   0.17E+00*   7  18 1  0.15E+00*  0.00   0.00    SX    NO    0:00:00
        2   1   19    0  -398.43716036   -0.72E-01* -0.69E-01*   6  13 1  0.27E-01*  0.00   0.00    SX    NO    0:00:00
        3   1   15    0  -398.44244265   -0.53E-02*  0.27E-01*  11  13 1 -0.91E-02*  0.00   0.00    SX    NO    0:00:00
        4   1   14    0  -398.44309703   -0.65E-03*  0.12E-01*  11  13 1 -0.38E-02*  0.00   0.00    SX    NO    0:00:00
        5   1   13    0  -398.44319995   -0.10E-03*  0.78E-02*  11  13 1 -0.16E-02*  0.00   1.69    LS   YES    0:00:00
        6   1   11    0  -398.44322034   -0.20E-04*  0.43E-03*   9  25 1  0.35E-03*  0.00   1.02    QN   YES    0:00:00
        7   1   10    0  -398.44322068   -0.34E-06*  0.11E-03*   7  12 1  0.52E-04   0.00   1.15    QN   YES    0:00:00
        8   1    6    0  -398.44322070   -0.21E-07*  0.20E-04    6  13 1  0.68E-05   0.00   1.07    QN   YES    0:00:00
        9   1    5    0  -398.44322070   -0.11E-09  -0.15E-04    6  13 1  0.30E-05   0.00   0.36    QN   YES    0:00:00
      Convergence after  9 iterations
       10   1    5    0  -398.44322070   -0.80E-10  -0.15E-04   10  13 1  0.76E-06   0.00   0.36    QN   YES    0:00:00
 
      ************************************************************************************************************************
                                                      Wave function printout:
                       occupation of active orbitals, and spin coupling of open shells (u,d: Spin up or down)
      ************************************************************************************************************************
 
      Note: transformation to natural orbitals
      has been made, which may change the order of the CSFs.
 
      printout of CI-coefficients larger than  0.10 for root  1
      energy=    -398.691294
      conf/sym  111111     Coeff  Weight
             1  222200  -0.97157 0.94395
            15  2u22d0   0.10830 0.01173
            38  2ud2ud   0.10422 0.01086
 
      printout of CI-coefficients larger than  0.10 for root  2
      energy=    -398.508333
      conf/sym  111111     Coeff  Weight
             2  222ud0   0.96011 0.92182
             4  222u0d   0.17078 0.02916
            10  22udud   0.10436 0.01089
 
      printout of CI-coefficients larger than  0.10 for root  3
      energy=    -398.478752
      conf/sym  111111     Coeff  Weight
             2  222ud0  -0.16881 0.02850
             4  222u0d   0.94668 0.89620
             8  22ud20   0.11092 0.01230
            18  2u2dud   0.15683 0.02460
            51  202u2d   0.10524 0.01108
 
      printout of CI-coefficients larger than  0.10 for root  4
      energy=    -398.352219
      conf/sym  111111     Coeff  Weight
             7  22u2d0   0.10695 0.01144
             9  22u20d  -0.73226 0.53621
            15  2u22d0   0.58031 0.33676
            17  2u220d   0.15662 0.02453
            31  220220  -0.17040 0.02904
            52  202202   0.13665 0.01867
 
      printout of CI-coefficients larger than  0.10 for root  5
      energy=    -398.346259
      conf/sym  111111     Coeff  Weight
             7  22u2d0  -0.67478 0.45532
            15  2u22d0  -0.10968 0.01203
            17  2u220d   0.66320 0.43984
            32  2202ud  -0.12419 0.01542
            37  2ud220   0.13684 0.01873
            40  2ud202  -0.14123 0.01994
 
      printout of CI-coefficients larger than  0.10 for root  6
      energy=    -398.282469
      conf/sym  111111     Coeff  Weight
             7  22u2d0   0.68366 0.46739
             9  22u20d   0.14237 0.02027
            15  2u22d0  -0.13192 0.01740
            17  2u220d   0.68522 0.46953
 
      Natural orbitals and occupation numbers for root  1
      sym 1:   1.997301   1.960930   1.964393   1.998621   0.048585   0.030170
 
      Natural orbitals and occupation numbers for root  2
      sym 1:   1.998911   1.986331   1.961214   1.000000   0.999145   0.054399
 
      Natural orbitals and occupation numbers for root  3
      sym 1:   1.998793   1.939791   1.971768   1.000000   0.097441   0.992207
 
      Natural orbitals and occupation numbers for root  4
      sym 1:   1.977015   1.592564   1.354189   1.983485   0.457999   0.634749
 
      Natural orbitals and occupation numbers for root  5
      sym 1:   1.992372   1.506926   1.408677   1.997379   0.595693   0.498953
 
      Natural orbitals and occupation numbers for root  6
      sym 1:   1.990624   1.501275   1.482162   1.998446   0.525752   0.501741
 
      ************************************************************************************************************************
      *                                                                                                                      *
      *                                                    Final results                                                     *
      *                                                                                                                      *
      ************************************************************************************************************************
 
 
++    Wave function specifications:
      -----------------------------
 
      Number of closed shell electrons          10
      Number of electrons in active shells       8
      Max number of holes in RAS1 space          0
      Max nr of electrons in RAS3 space          0
      Number of inactive orbitals                5
      Number of active orbitals                  6
      Number of secondary orbitals              17
      Spin quantum number                      0.0
      State symmetry                             1
--
 
++    Orbital specifications:
      -----------------------
 
      Symmetry species                           1
                                                 a
      Frozen orbitals                            0
      Inactive orbitals                          5
      Active orbitals                            6
      RAS1 orbitals                              0
      RAS2 orbitals                              6
      RAS3 orbitals                              0
      Secondary orbitals                        17
      Deleted orbitals                           0
      Number of basis functions                 28
--
 
++    CI expansion specifications:
      ----------------------------
 
      Number of CSFs                           105
      Number of determinants                   120
      Number of root(s) required                 6
      CI roots used                              1     2     3     4     5     6
      weights                                0.167 0.167 0.167 0.167 0.167 0.167
      highest root included in the CI            6
      Root passed to geometry opt.               6
--
 
++    Final optimization conditions:
      ------------------------------
 
      Average CI energy                            -398.44322070
      RASSCF energy for state  6                   -398.28246877
      Super-CI energy                                -0.00000000
      RASSCF energy change                           -0.00000000
      Max change in MO coefficients              -0.296E-04
      Max non-diagonal density matrix element    -0.146E-04
      Maximum BLB matrix element                  0.761E-06
      (orbital pair  10,  13 in symmetry   1)
      Norm of electronic gradient            0.934E-01
--
 
 
      Final state energy(ies):
      ------------------------
 
::    RASSCF root number  1 Total energy:   -398.69129351
::    RASSCF root number  2 Total energy:   -398.50833284
::    RASSCF root number  3 Total energy:   -398.47875151
::    RASSCF root number  4 Total energy:   -398.35221889
::    RASSCF root number  5 Total energy:   -398.34625868
::    RASSCF root number  6 Total energy:   -398.28246877
      Von Neumann Entropy (Root   1) =  0.27787
 

      Mulliken population analysis for root number:  1
      -----------------------------------------------
 
 
++    Molecular charges:
      ------------------
 
      Mulliken charges per centre
      ---------------------------
 
                S1      H2      H3    
      Total   16.1054  0.9472  0.9474
 
      N-E     -0.1054  0.0528  0.0526
 
      Total electronic charge=   18.000000
 
      Total            charge=   -0.000000
--
 
 

      Expectation values of various properties for root number:  1
      -----------------------------------------------------------
 
 
++    Molecular properties:
      ---------------------
 
      Charge (e):
                      =   -0.0000
      Dipole Moment (Debye):
      Origin of the operator (Ang)=    0.0000    0.0000    0.0000
                   X= -3.8657E-02               Y=  3.2814E-03               Z=  9.1790E-01           Total=  9.1872E-01
      Quadrupole Moment (Debye*Ang):
      Origin of the operator (Ang)=   -0.0030    0.0000    0.0709
                  XX= -1.6696E+01              XY=  1.7551E-01              XZ= -1.5458E-01              YY= -1.3284E+01
                  YZ=  6.1144E-03              ZZ= -1.3049E+01
      In traceless form (Debye*Ang)
                  XX= -3.5288E+00              XY=  2.6327E-01              XZ= -2.3187E-01              YY=  1.5881E+00
                  YZ=  9.1715E-03              ZZ=  1.9407E+00
--
 
      Von Neumann Entropy (Root   2) =  1.17995
 

      Mulliken population analysis for root number:  2
      -----------------------------------------------
 
 
++    Molecular charges:
      ------------------
 
      Mulliken charges per centre
      ---------------------------
 
                S1      H2      H3    
      Total   15.9289  1.0304  1.0407
 
      N-E      0.0711 -0.0304 -0.0407
 
      Total electronic charge=   18.000000
 
      Total            charge=   -0.000000
--
 
 

      Expectation values of various properties for root number:  2
      -----------------------------------------------------------
 
 
++    Molecular properties:
      ---------------------
 
      Charge (e):
                      =   -0.0000
      Dipole Moment (Debye):
      Origin of the operator (Ang)=    0.0000    0.0000    0.0000
                   X=  3.5197E-03               Y=  5.2947E-02               Z= -1.9006E-02           Total=  5.6365E-02
      Quadrupole Moment (Debye*Ang):
      Origin of the operator (Ang)=   -0.0030    0.0000    0.0709
                  XX= -1.4024E+01              XY= -1.5172E-01              XZ=  1.0805E-01              YY= -1.6864E+01
                  YZ=  1.2822E-01              ZZ= -1.6411E+01
      In traceless form (Debye*Ang)
                  XX=  2.6133E+00              XY= -2.2758E-01              XZ=  1.6208E-01              YY= -1.6464E+00
                  YZ=  1.9233E-01              ZZ= -9.6683E-01
--
 
      Von Neumann Entropy (Root   3) =  1.27795
 

      Mulliken population analysis for root number:  3
      -----------------------------------------------
 
 
++    Molecular charges:
      ------------------
 
      Mulliken charges per centre
      ---------------------------
 
                S1      H2      H3    
      Total   15.8174  1.0973  1.0853
 
      N-E      0.1826 -0.0973 -0.0853
 
      Total electronic charge=   18.000000
 
      Total            charge=   -0.000000
--
 
 

      Expectation values of various properties for root number:  3
      -----------------------------------------------------------
 
 
++    Molecular properties:
      ---------------------
 
      Charge (e):
                      =   -0.0000
      Dipole Moment (Debye):
      Origin of the operator (Ang)=    0.0000    0.0000    0.0000
                   X=  4.7360E-02               Y= -5.5652E-02               Z= -1.1872E+00           Total=  1.1894E+00
      Quadrupole Moment (Debye*Ang):
      Origin of the operator (Ang)=   -0.0030    0.0000    0.0709
                  XX= -1.4473E+01              XY= -1.2015E-01              XZ=  1.7700E-01              YY= -1.6924E+01
                  YZ= -1.4871E-01              ZZ= -1.8824E+01
      In traceless form (Debye*Ang)
                  XX=  3.4013E+00              XY= -1.8022E-01              XZ=  2.6549E-01              YY= -2.7581E-01
                  YZ= -2.2306E-01              ZZ= -3.1255E+00
--
 
      Von Neumann Entropy (Root   4) =  1.68344
 

      Mulliken population analysis for root number:  4
      -----------------------------------------------
 
 
++    Molecular charges:
      ------------------
 
      Mulliken charges per centre
      ---------------------------
 
                S1      H2      H3    
      Total   16.0063  0.9706  1.0231
 
      N-E     -0.0063  0.0294 -0.0231
 
      Total electronic charge=   18.000000
 
      Total            charge=   -0.000000
--
 
 

      Expectation values of various properties for root number:  4
      -----------------------------------------------------------
 
 
++    Molecular properties:
      ---------------------
 
      Charge (e):
                      =   -0.0000
      Dipole Moment (Debye):
      Origin of the operator (Ang)=    0.0000    0.0000    0.0000
                   X=  2.6558E-02               Y=  2.1411E-01               Z= -3.6824E-01           Total=  4.2679E-01
      Quadrupole Moment (Debye*Ang):
      Origin of the operator (Ang)=   -0.0030    0.0000    0.0709
                  XX= -1.7067E+01              XY=  4.7484E-02              XZ= -1.6633E-02              YY= -1.5652E+01
                  YZ=  5.9683E-01              ZZ= -1.5953E+01
      In traceless form (Debye*Ang)
                  XX= -1.2643E+00              XY=  7.1225E-02              XZ= -2.4950E-02              YY=  8.5784E-01
                  YZ=  8.9524E-01              ZZ=  4.0646E-01
--
 
      Von Neumann Entropy (Root   5) =  1.69140
 

      Mulliken population analysis for root number:  5
      -----------------------------------------------
 
 
++    Molecular charges:
      ------------------
 
      Mulliken charges per centre
      ---------------------------
 
                S1      H2      H3    
      Total   16.0421  1.0058  0.9522
 
      N-E     -0.0421 -0.0058  0.0478
 
      Total electronic charge=   18.000000
 
      Total            charge=   -0.000000
--
 
 

      Expectation values of various properties for root number:  5
      -----------------------------------------------------------
 
 
++    Molecular properties:
      ---------------------
 
      Charge (e):
                      =   -0.0000
      Dipole Moment (Debye):
      Origin of the operator (Ang)=    0.0000    0.0000    0.0000
                   X= -1.0852E-02               Y= -2.1719E-01               Z= -6.8136E-03           Total=  2.1757E-01
      Quadrupole Moment (Debye*Ang):
      Origin of the operator (Ang)=   -0.0030    0.0000    0.0709
                  XX= -1.7099E+01              XY=  1.1527E-01              XZ= -8.0552E-02              YY= -1.5354E+01
                  YZ= -5.9823E-01              ZZ= -1.5929E+01
      In traceless form (Debye*Ang)
                  XX= -1.4571E+00              XY=  1.7290E-01              XZ= -1.2083E-01              YY=  1.1598E+00
                  YZ= -8.9734E-01              ZZ=  2.9734E-01
--
 
      Von Neumann Entropy (Root   6) =  1.64605
 

      Mulliken population analysis for root number:  6
      -----------------------------------------------
 
 
++    Molecular charges:
      ------------------
 
      Mulliken charges per centre
      ---------------------------
 
                S1      H2      H3    
      Total   16.0067  0.9960  0.9972
 
      N-E     -0.0067  0.0040  0.0028
 
      Total electronic charge=   18.000000
 
      Total            charge=   -0.000000
--
 
 

      Expectation values of various properties for root number:  6
      -----------------------------------------------------------
 
 
++    Molecular properties:
      ---------------------
 
      Charge (e):
                      =   -0.0000
      Dipole Moment (Debye):
      Origin of the operator (Ang)=    0.0000    0.0000    0.0000
                   X= -1.5339E-02               Y=  5.8297E-03               Z=  3.6970E-01           Total=  3.7007E-01
      Quadrupole Moment (Debye*Ang):
      Origin of the operator (Ang)=   -0.0030    0.0000    0.0709
                  XX= -1.7062E+01              XY=  9.2056E-02              XZ= -5.3730E-02              YY= -1.5250E+01
                  YZ=  2.9701E-02              ZZ= -1.5762E+01
      In traceless form (Debye*Ang)
                  XX= -1.5558E+00              XY=  1.3808E-01              XZ= -8.0595E-02              YY=  1.1626E+00
                  YZ=  4.4552E-02              ZZ=  3.9319E-01
--
 
 
      Input file to MOLDEN was generated!
 
 
      Input file to MOLDEN was generated!
 
 
      Input file to MOLDEN was generated!
 
 
      Input file to MOLDEN was generated!
 
 
      Input file to MOLDEN was generated!
 
 
      Input file to MOLDEN was generated!
 
 
      Input file to MOLDEN was generated!
 
      Average orbitals are written to the RASORB file
      Natural orbitals for root   1 are written to the RASORB.1 file
      Natural orbitals for root   2 are written to the RASORB.2 file
      Natural orbitals for root   3 are written to the RASORB.3 file
      Natural orbitals for root   4 are written to the RASORB.4 file
      Natural orbitals for root   5 are written to the RASORB.5 file
      Natural orbitals for root   6 are written to the RASORB.6 file
      Spin density orbitals for root   1 are written to the SPDORB.1 file
      Spin density orbitals for root   2 are written to the SPDORB.2 file
      Spin density orbitals for root   3 are written to the SPDORB.3 file
      Spin density orbitals for root   4 are written to the SPDORB.4 file
      Spin density orbitals for root   5 are written to the SPDORB.5 file
      Spin density orbitals for root   6 are written to the SPDORB.6 file
 
--- Stop Module: rasscf at Fri Mar 22 16:31:30 2024 /rc=_RC_ALL_IS_WELL_ ---
--- Module rasscf spent 2 seconds ---

>>> COPY MOLCAS.JobIph MOLCAS.1.JobIph

*** symbolic link created: INPORB -> MOLCAS.RasOrb
--- Start Module: rasscf at Fri Mar 22 16:31:30 2024 ---
 
()()()()()()()()()()()()()()()()()()()()()()()()()()()()()()()()()()()()()()()()()()()()()()()()()()

                                              &RASSCF

                                   only a single process is used
                       available to each process: 10 GB of memory, 1 thread?
                                            pid: 2115112
()()()()()()()()()()()()()()()()()()()()()()()()()()()()()()()()()()()()()()()()()()()()()()()()()()
 
 
      Header of the ONEINT file:
      --------------------------
      
      Integrals generated by Gateway/Seward, Fri Mar 22 16:31:27 2024
 
 
      OrdInt status: non-squared
 
 
      Cartesian coordinates in Angstrom:
      -----------------------------------------------------
      No.  Label        X            Y            Z        
      -----------------------------------------------------
       1   S1         0.00000000   0.00000000   0.00084100
       2   H2         0.00000000   0.97479900   1.18293400
       3   H3        -0.10000000  -0.97479900   1.18293400
      -----------------------------------------------------
      Nuclear repulsion energy =   11.31134847
 
++    Wave function specifications:
      -----------------------------
 
      Number of closed shell electrons          10
      Number of electrons in active shells       7
      Max number of holes in RAS1 space          0
      Max nr of electrons in RAS3 space          0
      Number of inactive orbitals                5
      Number of active orbitals                  6
      Number of secondary orbitals              17
      Spin quantum number                      0.5
      State symmetry                             1
--
 
++    Orbital specifications:
      -----------------------
 
      Symmetry species                           1
                                                 a
      Frozen orbitals                            0
      Inactive orbitals                          5
      Active orbitals                            6
      RAS1 orbitals                              0
      RAS2 orbitals                              6
      RAS3 orbitals                              0
      Secondary orbitals                        17
      Deleted orbitals                           0
      Number of basis functions                 28
--
 
++    CI expansion specifications:
      ----------------------------
 
      Number of CSFs                           210
      Number of determinants                   300
      Number of root(s) required                 4
      Root chosen for geometry opt.              4
      CI roots used                              1     2     3     4
      weights                                0.250 0.250 0.250 0.250
      highest root included in the CI            4
      max. size of the explicit Hamiltonian    200
--
 
++    Optimization specifications:
      ----------------------------
 
      RASSCF algorithm: LK RI/DF
      Maximum number of macro iterations       200
      Maximum number of SX iterations          100
      Threshold for RASSCF energy            0.100E-07
      Threshold for max MO rotation          0.100E-03
      Threshold for max BLB element          0.100E-03
      Level shift parameter                  0.500E+00
      Make Quasi-Newton update
--
 
      Orbitals from runfile: rasscf orbitals
      The MO-coefficients are taken from rasscf orbitals on runfile
 
      Total molecular charge    1.00
 
      ************************************************************************************************************************
      *                                                                                                                      *
      *                                            Wave function control section                                             *
      *                                                                                                                      *
      ************************************************************************************************************************
 
 
                                         RASSCF iterations: Energy and convergence statistics
                                         ----------------------------------------------------
 
      Iter CI   SX   CI       RASSCF       Energy    max ROT     max BLB   max BLB  Level Ln srch  Step   QN   Walltime
          iter iter root      energy       change     param      element    value   shift minimum  type update hh:mm:ss
 Nr of preliminary CI iterations:   3
        1   1   20    0  -398.19777187    0.00E+00   0.29E+00*   7  12 1 -0.80E-01*  0.00   0.00    SX    NO    0:00:00
        2   3    8    0  -398.22724339   -0.29E-01*  0.70E-01*   7  21 1 -0.13E-01*  0.00   0.00    SX    NO    0:00:00
        3   1    8    0  -398.22888100   -0.16E-02* -0.28E-01*   7  12 1 -0.28E-02*  0.00   0.00    SX    NO    0:00:00
        4   3    8    0  -398.22910668   -0.23E-03*  0.14E-01*   7  21 1 -0.16E-02*  0.00   0.00    SX    NO    0:00:00
        5   3    7    0  -398.22914354   -0.37E-04*  0.89E-02*  10  12 1  0.46E-03*  0.00   1.67    LS   YES    0:00:00
        6   3    7    0  -398.22915047   -0.69E-05* -0.15E-02*   7  21 1  0.41E-03*  0.00   1.02    QN   YES    0:00:00
        7   3    6    0  -398.22915144   -0.96E-06* -0.59E-03*   8  27 1  0.77E-04   0.00   1.41    LS   YES    0:00:00
        8   3    6    0  -398.22915152   -0.87E-07* -0.51E-03*   7  12 1  0.10E-03   0.00   1.00    QN   YES    0:00:00
        9   3    6    0  -398.22915160   -0.80E-07*  0.27E-03*   8  22 1 -0.29E-04   0.00   1.31    QN   YES    0:00:00
       10   3    4    0  -398.22915161   -0.10E-07* -0.40E-04    6  22 1 -0.73E-05   0.00   1.13    QN   YES    0:00:00
       11   1    4    0  -398.22915161   -0.27E-09  -0.10E-04    9  18 1 -0.16E-05   0.00   2.50    QN   YES    0:00:00
      Convergence after 11 iterations
       12   1    4    0  -398.22915161   -0.32E-10  -0.10E-04    6  22 1  0.33E-06   0.00   2.50    QN   YES    0:00:00
 
      ************************************************************************************************************************
                                                      Wave function printout:
                       occupation of active orbitals, and spin coupling of open shells (u,d: Spin up or down)
      ************************************************************************************************************************
 
      Note: transformation to natural orbitals
      has been made, which may change the order of the CSFs.
 
      printout of CI-coefficients larger than  0.10 for root  1
      energy=    -398.367451
      conf/sym  111111     Coeff  Weight
             1  222u00  -0.97361 0.94793
            56  202u20  -0.10763 0.01158
 
      printout of CI-coefficients larger than  0.10 for root  2
      energy=    -398.233506
      conf/sym  111111     Coeff  Weight
             4  22u200  -0.95871 0.91912
            13  2u2200  -0.17060 0.02910
           124  20u220  -0.10709 0.01147
 
      printout of CI-coefficients larger than  0.10 for root  3
      energy=    -398.220559
      conf/sym  111111     Coeff  Weight
             4  22u200   0.16872 0.02847
            13  2u2200  -0.94600 0.89491
            41  2ud20u   0.11686 0.01366
            55  2022u0   0.10610 0.01126
 
      printout of CI-coefficients larger than  0.10 for root  4
      energy=    -398.095090
      conf/sym  111111     Coeff  Weight
             2  2220u0   0.95477 0.91159
            11  22u0ud  -0.12374 0.01531
            16  2u2020  -0.12896 0.01663
 
      Natural orbitals and occupation numbers for root  1
      sym 1:   1.994895   1.949177   1.957993   1.000000   0.059882   0.038052
 
      Natural orbitals and occupation numbers for root  2
      sym 1:   1.979316   1.937847   1.006413   1.998397   0.047642   0.030385
 
      Natural orbitals and occupation numbers for root  3
      sym 1:   1.986200   1.013703   1.932545   1.981439   0.049563   0.036550
 
      Natural orbitals and occupation numbers for root  4
      sym 1:   1.977336   1.971837   1.950848   0.048894   0.992269   0.058817
 
      ************************************************************************************************************************
      *                                                                                                                      *
      *                                                    Final results                                                     *
      *                                                                                                                      *
      ************************************************************************************************************************
 
 
++    Wave function specifications:
      -----------------------------
 
      Number of closed shell electrons          10
      Number of electrons in active shells       7
      Max number of holes in RAS1 space          0
      Max nr of electrons in RAS3 space          0
      Number of inactive orbitals                5
      Number of active orbitals                  6
      Number of secondary orbitals              17
      Spin quantum number                      0.5
      State symmetry                             1
--
 
++    Orbital specifications:
      -----------------------
 
      Symmetry species                           1
                                                 a
      Frozen orbitals                            0
      Inactive orbitals                          5
      Active orbitals                            6
      RAS1 orbitals                              0
      RAS2 orbitals                              6
      RAS3 orbitals                              0
      Secondary orbitals                        17
      Deleted orbitals                           0
      Number of basis functions                 28
--
 
++    CI expansion specifications:
      ----------------------------
 
      Number of CSFs                           210
      Number of determinants                   300
      Number of root(s) required                 4
      CI roots used                              1     2     3     4
      weights                                0.250 0.250 0.250 0.250
      highest root included in the CI            4
      Root passed to geometry opt.               4
--
 
++    Final optimization conditions:
      ------------------------------
 
      Average CI energy                            -398.22915161
      RASSCF energy for state  4                   -398.09509049
      Super-CI energy                                -0.00000000
      RASSCF energy change                            0.00000000
      Max change in MO coefficients               0.243E-04
      Max non-diagonal density matrix element    -0.101E-04
      Maximum BLB matrix element                  0.334E-06
      (orbital pair   6,  22 in symmetry   1)
      Norm of electronic gradient            0.801E-01
--
 
 
      Final state energy(ies):
      ------------------------
 
::    RASSCF root number  1 Total energy:   -398.36745097
::    RASSCF root number  2 Total energy:   -398.23350552
::    RASSCF root number  3 Total energy:   -398.22055947
::    RASSCF root number  4 Total energy:   -398.09509049
      Von Neumann Entropy (Root   1) =  0.83015
 

      Mulliken population analysis for root number:  1
      -----------------------------------------------
 
 
++    Molecular charges:
      ------------------
 
      Mulliken charges per centre
      ---------------------------
 
                S1      H2      H3    
      Total   15.4692  0.7654  0.7654
 
      N-E      0.5308  0.2346  0.2346
 
      Total electronic charge=   17.000000
 
      Total            charge=    1.000000
--
 
 

      Expectation values of various properties for root number:  1
      -----------------------------------------------------------
 
 
++    Molecular properties:
      ---------------------
 
      Charge (e):
                      =    1.0000
      Dipole Moment (Debye):
      Origin of the operator (Ang)=    0.0000    0.0000    0.0000
                   X= -1.0663E-01               Y=  1.3120E-03               Z=  2.5265E+00           Total=  2.5287E+00
      Center of Charge (Ang)
                     X=   -0.02219885               Y=    0.00027316               Z=    0.52599429
      Quadrupole Moment (Debye*Ang):
      Origin of the operator (Ang)=   -0.0030    0.0000    0.0709
                  XX= -1.1664E+01              XY=  1.0714E-01              XZ= -1.2020E-01              YY= -9.5852E+00
                  YZ=  9.8174E-04              ZZ= -8.8320E+00
      In traceless form (Debye*Ang)
                  XX= -2.4557E+00              XY=  1.6071E-01              XZ= -1.8029E-01              YY=  6.6292E-01
                  YZ=  1.4726E-03              ZZ=  1.7927E+00
--
 

      Mulliken spin population analysis for root number:  1
      ---------------------------------------------------
 
 
++    Molecular charges:
      ------------------
 
      Mulliken spin population per centre
      ---------------------------
 
                S1      H2      H3    
      Total    1.1016 -0.0505 -0.0511
 
      Total electronic spin=    1.000000
--
 
 
      Von Neumann Entropy (Root   2) =  0.77890
 

      Mulliken population analysis for root number:  2
      -----------------------------------------------
 
 
++    Molecular charges:
      ------------------
 
      Mulliken charges per centre
      ---------------------------
 
                S1      H2      H3    
      Total   15.6237  0.6899  0.6864
 
      N-E      0.3763  0.3101  0.3136
 
      Total electronic charge=   17.000000
 
      Total            charge=    1.000000
--
 
 

      Expectation values of various properties for root number:  2
      -----------------------------------------------------------
 
 
++    Molecular properties:
      ---------------------
 
      Charge (e):
                      =    1.0000
      Dipole Moment (Debye):
      Origin of the operator (Ang)=    0.0000    0.0000    0.0000
                   X= -1.0660E-01               Y= -9.8025E-03               Z=  2.5124E+00           Total=  2.5147E+00
      Center of Charge (Ang)
                     X=   -0.02219380               Y=   -0.00204082               Z=    0.52306887
      Quadrupole Moment (Debye*Ang):
      Origin of the operator (Ang)=   -0.0030    0.0000    0.0709
                  XX= -1.4179E+01              XY=  2.6746E-01              XZ= -3.3922E-01              YY= -9.0161E+00
                  YZ= -2.8840E-02              ZZ= -6.2220E+00
      In traceless form (Debye*Ang)
                  XX= -6.5596E+00              XY=  4.0120E-01              XZ= -5.0883E-01              YY=  1.1843E+00
                  YZ= -4.3259E-02              ZZ=  5.3754E+00
--
 

      Mulliken spin population analysis for root number:  2
      ---------------------------------------------------
 
 
++    Molecular charges:
      ------------------
 
      Mulliken spin population per centre
      ---------------------------
 
                S1      H2      H3    
      Total    0.6662  0.1612  0.1726
 
      Total electronic spin=    1.000000
--
 
 
      Von Neumann Entropy (Root   3) =  0.80569
 

      Mulliken population analysis for root number:  3
      -----------------------------------------------
 
 
++    Molecular charges:
      ------------------
 
      Mulliken charges per centre
      ---------------------------
 
                S1      H2      H3    
      Total   15.6195  0.6881  0.6924
 
      N-E      0.3805  0.3119  0.3076
 
      Total electronic charge=   17.000000
 
      Total            charge=    1.000000
--
 
 

      Expectation values of various properties for root number:  3
      -----------------------------------------------------------
 
 
++    Molecular properties:
      ---------------------
 
      Charge (e):
                      =    1.0000
      Dipole Moment (Debye):
      Origin of the operator (Ang)=    0.0000    0.0000    0.0000
                   X= -1.4475E-01               Y=  1.2139E-02               Z=  3.4410E+00           Total=  3.4440E+00
      Center of Charge (Ang)
                     X=   -0.03013645               Y=    0.00252720               Z=    0.71638734
      Quadrupole Moment (Debye*Ang):
      Origin of the operator (Ang)=   -0.0030    0.0000    0.0709
                  XX= -1.4259E+01              XY=  3.5702E-01              XZ= -2.5625E-01              YY= -7.2893E+00
                  YZ=  4.6756E-02              ZZ= -8.1734E+00
      In traceless form (Debye*Ang)
                  XX= -6.5278E+00              XY=  5.3553E-01              XZ= -3.8437E-01              YY=  3.9269E+00
                  YZ=  7.0134E-02              ZZ=  2.6008E+00
--
 

      Mulliken spin population analysis for root number:  3
      ---------------------------------------------------
 
 
++    Molecular charges:
      ------------------
 
      Mulliken spin population per centre
      ---------------------------
 
                S1      H2      H3    
      Total    0.4067  0.3013  0.2920
 
      Total electronic spin=    1.000000
--
 
 
      Von Neumann Entropy (Root   4) =  0.85365
 

      Mulliken population analysis for root number:  4
      -----------------------------------------------
 
 
++    Molecular charges:
      ------------------
 
      Mulliken charges per centre
      ---------------------------
 
                S1      H2      H3    
      Total   15.1969  0.8972  0.9059
 
      N-E      0.8031  0.1028  0.0941
 
      Total electronic charge=   17.000000
 
      Total            charge=    1.000000
--
 
 

      Expectation values of various properties for root number:  4
      -----------------------------------------------------------
 
 
++    Molecular properties:
      ---------------------
 
      Charge (e):
                      =    1.0000
      Dipole Moment (Debye):
      Origin of the operator (Ang)=    0.0000    0.0000    0.0000
                   X= -5.7705E-02               Y=  3.6402E-02               Z=  1.4124E+00           Total=  1.4141E+00
      Center of Charge (Ang)
                     X=   -0.01201379               Y=    0.00757862               Z=    0.29405948
      Quadrupole Moment (Debye*Ang):
      Origin of the operator (Ang)=   -0.0030    0.0000    0.0709
                  XX= -9.1612E+00              XY= -1.6801E-01              XZ=  1.0587E-01              YY= -1.2359E+01
                  YZ=  7.7818E-02              ZZ= -1.1557E+01
      In traceless form (Debye*Ang)
                  XX=  2.7969E+00              XY= -2.5202E-01              XZ=  1.5881E-01              YY= -2.0005E+00
                  YZ=  1.1673E-01              ZZ= -7.9636E-01
--
 

      Mulliken spin population analysis for root number:  4
      ---------------------------------------------------
 
 
++    Molecular charges:
      ------------------
 
      Mulliken spin population per centre
      ---------------------------
 
                S1      H2      H3    
      Total    0.2328  0.3720  0.3952
 
      Total electronic spin=    1.000000
--
 
 
 
      Input file to MOLDEN was generated!
 
 
      Input file to MOLDEN was generated!
 
 
      Input file to MOLDEN was generated!
 
 
      Input file to MOLDEN was generated!
 
 
      Input file to MOLDEN was generated!
 
      Average orbitals are written to the RASORB file
      Natural orbitals for root   1 are written to the RASORB.1 file
      Natural orbitals for root   2 are written to the RASORB.2 file
      Natural orbitals for root   3 are written to the RASORB.3 file
      Natural orbitals for root   4 are written to the RASORB.4 file
      Spin density orbitals for root   1 are written to the SPDORB.1 file
      Spin density orbitals for root   2 are written to the SPDORB.2 file
      Spin density orbitals for root   3 are written to the SPDORB.3 file
      Spin density orbitals for root   4 are written to the SPDORB.4 file
 
--- Stop Module: rasscf at Fri Mar 22 16:31:33 2024 /rc=_RC_ALL_IS_WELL_ ---
--- Module rasscf spent 2 seconds ---

>>> COPY MOLCAS.JobIph MOLCAS.2.JobIph

*** symbolic link created: INPORB -> MOLCAS.RasOrb
--- Start Module: rasscf at Fri Mar 22 16:31:33 2024 ---
 
()()()()()()()()()()()()()()()()()()()()()()()()()()()()()()()()()()()()()()()()()()()()()()()()()()

                                              &RASSCF

                                   only a single process is used
                       available to each process: 10 GB of memory, 1 thread?
                                            pid: 2115115
()()()()()()()()()()()()()()()()()()()()()()()()()()()()()()()()()()()()()()()()()()()()()()()()()()
 
 
      Header of the ONEINT file:
      --------------------------
      
      Integrals generated by Gateway/Seward, Fri Mar 22 16:31:27 2024
 
 
      OrdInt status: non-squared
 
 
      Cartesian coordinates in Angstrom:
      -----------------------------------------------------
      No.  Label        X            Y            Z        
      -----------------------------------------------------
       1   S1         0.00000000   0.00000000   0.00084100
       2   H2         0.00000000   0.97479900   1.18293400
       3   H3        -0.10000000  -0.97479900   1.18293400
      -----------------------------------------------------
      Nuclear repulsion energy =   11.31134847
 
++    Wave function specifications:
      -----------------------------
 
      Number of closed shell electrons          10
      Number of electrons in active shells       8
      Max number of holes in RAS1 space          0
      Max nr of electrons in RAS3 space          0
      Number of inactive orbitals                5
      Number of active orbitals                  6
      Number of secondary orbitals              17
      Spin quantum number                      1.0
      State symmetry                             1
--
 
++    Orbital specifications:
      -----------------------
 
      Symmetry species                           1
                                                 a
      Frozen orbitals                            0
      Inactive orbitals                          5
      Active orbitals                            6
      RAS1 orbitals                              0
      RAS2 orbitals                              6
      RAS3 orbitals                              0
      Secondary orbitals                        17
      Deleted orbitals                           0
      Number of basis functions                 28
--
 
++    CI expansion specifications:
      ----------------------------
 
      Number of CSFs                           105
      Number of determinants                   120
      Number of root(s) required                 4
      Root chosen for geometry opt.              4
      CI roots used                              1     2     3     4
      weights                                0.250 0.250 0.250 0.250
      highest root included in the CI            4
      max. size of the explicit Hamiltonian    105
--
 
++    Optimization specifications:
      ----------------------------
 
      RASSCF algorithm: LK RI/DF
      Maximum number of macro iterations       200
      Maximum number of SX iterations          100
      Threshold for RASSCF energy            0.100E-07
      Threshold for max MO rotation          0.100E-03
      Threshold for max BLB element          0.100E-03
      Level shift parameter                  0.500E+00
      Make Quasi-Newton update
--
 
      Orbitals from runfile: rasscf orbitals
      The MO-coefficients are taken from rasscf orbitals on runfile
 
      Total molecular charge    0.00
 
      ************************************************************************************************************************
      *                                                                                                                      *
      *                                            Wave function control section                                             *
      *                                                                                                                      *
      ************************************************************************************************************************
 
 
                                         RASSCF iterations: Energy and convergence statistics
                                         ----------------------------------------------------
 
      Iter CI   SX   CI       RASSCF       Energy    max ROT     max BLB   max BLB  Level Ln srch  Step   QN   Walltime
          iter iter root      energy       change     param      element    value   shift minimum  type update hh:mm:ss
 Nr of preliminary CI iterations:   1
        1   1   95    0  -398.42153287    0.00E+00   0.30E+00*   8  14 1 -0.91E-01*  0.15   0.00    SX    NO    0:00:00
        2   1    9    0  -398.48029912   -0.59E-01*  0.73E-01*  11  12 1 -0.17E-01*  0.00   0.00    SX    NO    0:00:00
        3   1    7    0  -398.48276382   -0.25E-02*  0.16E-01*  11  12 1 -0.39E-02*  0.00   0.00    SX    NO    0:00:00
        4   1    7    0  -398.48291785   -0.15E-03*  0.46E-02*   7  21 1  0.12E-02*  0.00   0.00    SX    NO    0:00:00
        5   1    6    0  -398.48293086   -0.13E-04*  0.20E-02*   7  21 1  0.41E-03*  0.00   1.43    LS   YES    0:00:00
        6   1    5    0  -398.48293217   -0.13E-05*  0.83E-04    9  17 1  0.12E-03*  0.00   1.01    QN   YES    0:00:00
        7   1    4    0  -398.48293221   -0.40E-07*  0.31E-04    9  17 1  0.37E-04   0.00   1.39    QN   YES    0:00:00
        8   1    3    0  -398.48293221   -0.29E-08   0.21E-05    5  15 1  0.26E-05   0.00   1.03    QN   YES    0:00:00
      Convergence after  8 iterations
        9   1    3    0  -398.48293221   -0.81E-10   0.21E-05    6  22 1 -0.51E-06   0.00   1.03    QN   YES    0:00:00
 
      ************************************************************************************************************************
                                                      Wave function printout:
                       occupation of active orbitals, and spin coupling of open shells (u,d: Spin up or down)
      ************************************************************************************************************************
 
      Note: transformation to natural orbitals
      has been made, which may change the order of the CSFs.
 
      printout of CI-coefficients larger than  0.10 for root  1
      energy=    -398.529132
      conf/sym  111111     Coeff  Weight
             1  222uu0  -0.97712 0.95477
            20  2u2u02   0.10040 0.01008
 
      printout of CI-coefficients larger than  0.10 for root  2
      energy=    -398.503208
      conf/sym  111111     Coeff  Weight
             2  222u0u  -0.96671 0.93453
             5  22uu20   0.13172 0.01735
            19  2u2uud   0.12581 0.01583
            41  202u2u  -0.10372 0.01076
 
      printout of CI-coefficients larger than  0.10 for root  3
      energy=    -398.451020
      conf/sym  111111     Coeff  Weight
             4  22u2u0  -0.20776 0.04317
             6  22u20u  -0.53354 0.28466
            13  2u22u0  -0.79058 0.62501
            15  2u220u  -0.11585 0.01342
 
      printout of CI-coefficients larger than  0.10 for root  4
      energy=    -398.448368
      conf/sym  111111     Coeff  Weight
             4  22u2u0  -0.82006 0.67250
             6  22u20u   0.12870 0.01656
            13  2u22u0   0.19980 0.03992
            15  2u220u  -0.48696 0.23713
 
      Natural orbitals and occupation numbers for root  1
      sym 1:   1.997194   1.976187   1.965364   1.000000   0.998862   0.062392
 
      Natural orbitals and occupation numbers for root  2
      sym 1:   1.998657   1.952372   1.962503   1.000000   0.097103   0.989366
 
      Natural orbitals and occupation numbers for root  3
      sym 1:   1.995492   1.207530   1.752843   1.998887   0.796586   0.248663
 
      Natural orbitals and occupation numbers for root  4
      sym 1:   1.993819   1.787891   1.174382   1.997977   0.828763   0.217168
 
      ************************************************************************************************************************
      *                                                                                                                      *
      *                                                    Final results                                                     *
      *                                                                                                                      *
      ************************************************************************************************************************
 
 
++    Wave function specifications:
      -----------------------------
 
      Number of closed shell electrons          10
      Number of electrons in active shells       8
      Max number of holes in RAS1 space          0
      Max nr of electrons in RAS3 space          0
      Number of inactive orbitals                5
      Number of active orbitals                  6
      Number of secondary orbitals              17
      Spin quantum number                      1.0
      State symmetry                             1
--
 
++    Orbital specifications:
      -----------------------
 
      Symmetry species                           1
                                                 a
      Frozen orbitals                            0
      Inactive orbitals                          5
      Active orbitals                            6
      RAS1 orbitals                              0
      RAS2 orbitals                              6
      RAS3 orbitals                              0
      Secondary orbitals                        17
      Deleted orbitals                           0
      Number of basis functions                 28
--
 
++    CI expansion specifications:
      ----------------------------
 
      Number of CSFs                           105
      Number of determinants                   120
      Number of root(s) required                 4
      CI roots used                              1     2     3     4
      weights                                0.250 0.250 0.250 0.250
      highest root included in the CI            4
      Root passed to geometry opt.               4
--
 
++    Final optimization conditions:
      ------------------------------
 
      Average CI energy                            -398.48293221
      RASSCF energy for state  4                   -398.44836830
      Super-CI energy                                -0.00000000
      RASSCF energy change                           -0.00000000
      Max change in MO coefficients               0.534E-05
      Max non-diagonal density matrix element     0.207E-05
      Maximum BLB matrix element                 -0.509E-06
      (orbital pair   6,  22 in symmetry   1)
      Norm of electronic gradient            0.606E-01
--
 
 
      Final state energy(ies):
      ------------------------
 
::    RASSCF root number  1 Total energy:   -398.52913226
::    RASSCF root number  2 Total energy:   -398.50320833
::    RASSCF root number  3 Total energy:   -398.45101995
::    RASSCF root number  4 Total energy:   -398.44836830
      Von Neumann Entropy (Root   1) =  1.20017
 

      Mulliken population analysis for root number:  1
      -----------------------------------------------
 
 
++    Molecular charges:
      ------------------
 
      Mulliken charges per centre
      ---------------------------
 
                S1      H2      H3    
      Total   15.8784  1.0550  1.0666
 
      N-E      0.1216 -0.0550 -0.0666
 
      Total electronic charge=   18.000000
 
      Total            charge=   -0.000000
--
 
 

      Expectation values of various properties for root number:  1
      -----------------------------------------------------------
 
 
++    Molecular properties:
      ---------------------
 
      Charge (e):
                      =   -0.0000
      Dipole Moment (Debye):
      Origin of the operator (Ang)=    0.0000    0.0000    0.0000
                   X=  8.9395E-03               Y=  5.0459E-02               Z= -1.5016E-01           Total=  1.5866E-01
      Quadrupole Moment (Debye*Ang):
      Origin of the operator (Ang)=   -0.0030    0.0000    0.0709
                  XX= -1.3854E+01              XY= -1.4854E-01              XZ=  1.1161E-01              YY= -1.6637E+01
                  YZ=  1.2198E-01              ZZ= -1.6332E+01
      In traceless form (Debye*Ang)
                  XX=  2.6308E+00              XY= -2.2281E-01              XZ=  1.6742E-01              YY= -1.5438E+00
                  YZ=  1.8297E-01              ZZ= -1.0870E+00
--
 

      Mulliken spin population analysis for root number:  1
      ---------------------------------------------------
 
 
++    Molecular charges:
      ------------------
 
      Mulliken spin population per centre
      ---------------------------
 
                S1      H2      H3    
      Total    1.3459  0.3121  0.3420
 
      Total electronic spin=    2.000000
--
 
 
      Von Neumann Entropy (Root   2) =  1.27591
 

      Mulliken population analysis for root number:  2
      -----------------------------------------------
 
 
++    Molecular charges:
      ------------------
 
      Mulliken charges per centre
      ---------------------------
 
                S1      H2      H3    
      Total   15.7759  1.1189  1.1052
 
      N-E      0.2241 -0.1189 -0.1052
 
      Total electronic charge=   18.000000
 
      Total            charge=   -0.000000
--
 
 

      Expectation values of various properties for root number:  2
      -----------------------------------------------------------
 
 
++    Molecular properties:
      ---------------------
 
      Charge (e):
                      =   -0.0000
      Dipole Moment (Debye):
      Origin of the operator (Ang)=    0.0000    0.0000    0.0000
                   X=  3.4955E-02               Y= -5.2498E-02               Z= -8.9007E-01           Total=  8.9230E-01
      Quadrupole Moment (Debye*Ang):
      Origin of the operator (Ang)=   -0.0030    0.0000    0.0709
                  XX= -1.4194E+01              XY= -1.1262E-01              XZ=  1.5644E-01              YY= -1.6496E+01
                  YZ= -1.4401E-01              ZZ= -1.8054E+01
      In traceless form (Debye*Ang)
                  XX=  3.0814E+00              XY= -1.6892E-01              XZ=  2.3466E-01              YY= -3.7153E-01
                  YZ= -2.1601E-01              ZZ= -2.7098E+00
--
 

      Mulliken spin population analysis for root number:  2
      ---------------------------------------------------
 
 
++    Molecular charges:
      ------------------
 
      Mulliken spin population per centre
      ---------------------------
 
                S1      H2      H3    
      Total    1.2024  0.4137  0.3838
 
      Total electronic spin=    2.000000
--
 
 
      Von Neumann Entropy (Root   3) =  1.51327
 

      Mulliken population analysis for root number:  3
      -----------------------------------------------
 
 
++    Molecular charges:
      ------------------
 
      Mulliken charges per centre
      ---------------------------
 
                S1      H2      H3    
      Total   16.0566  0.9531  0.9903
 
      N-E     -0.0566  0.0469  0.0097
 
      Total electronic charge=   18.000000
 
      Total            charge=   -0.000000
--
 
 

      Expectation values of various properties for root number:  3
      -----------------------------------------------------------
 
 
++    Molecular properties:
      ---------------------
 
      Charge (e):
                      =   -0.0000
      Dipole Moment (Debye):
      Origin of the operator (Ang)=    0.0000    0.0000    0.0000
                   X= -1.4187E-03               Y=  3.6456E-01               Z=  4.7562E-01           Total=  5.9927E-01
      Quadrupole Moment (Debye*Ang):
      Origin of the operator (Ang)=   -0.0030    0.0000    0.0709
                  XX= -1.6801E+01              XY=  8.6144E-02              XZ= -3.3127E-02              YY= -1.4579E+01
                  YZ=  6.6593E-01              ZZ= -1.5217E+01
      In traceless form (Debye*Ang)
                  XX= -1.9038E+00              XY=  1.2922E-01              XZ= -4.9690E-02              YY=  1.4304E+00
                  YZ=  9.9890E-01              ZZ=  4.7350E-01
--
 

      Mulliken spin population analysis for root number:  3
      ---------------------------------------------------
 
 
++    Molecular charges:
      ------------------
 
      Mulliken spin population per centre
      ---------------------------
 
                S1      H2      H3    
      Total    0.9965  0.2627  0.7408
 
      Total electronic spin=    2.000000
--
 
 
      Von Neumann Entropy (Root   4) =  1.47599
 

      Mulliken population analysis for root number:  4
      -----------------------------------------------
 
 
++    Molecular charges:
      ------------------
 
      Mulliken charges per centre
      ---------------------------
 
                S1      H2      H3    
      Total   16.0286  1.0039  0.9675
 
      N-E     -0.0286 -0.0039  0.0325
 
      Total electronic charge=   18.000000
 
      Total            charge=   -0.000000
--
 
 

      Expectation values of various properties for root number:  4
      -----------------------------------------------------------
 
 
++    Molecular properties:
      ---------------------
 
      Charge (e):
                      =   -0.0000
      Dipole Moment (Debye):
      Origin of the operator (Ang)=    0.0000    0.0000    0.0000
                   X= -1.5542E-02               Y= -3.6163E-01               Z= -7.1083E-02           Total=  3.6887E-01
      Quadrupole Moment (Debye*Ang):
      Origin of the operator (Ang)=   -0.0030    0.0000    0.0709
                  XX= -1.6716E+01              XY=  9.4220E-02              XZ= -1.3049E-01              YY= -1.5427E+01
                  YZ= -6.5240E-01              ZZ= -1.4433E+01
      In traceless form (Debye*Ang)
                  XX= -1.7860E+00              XY=  1.4133E-01              XZ= -1.9573E-01              YY=  1.4685E-01
                  YZ= -9.7860E-01              ZZ=  1.6391E+00
--
 

      Mulliken spin population analysis for root number:  4
      ---------------------------------------------------
 
 
++    Molecular charges:
      ------------------
 
      Mulliken spin population per centre
      ---------------------------
 
                S1      H2      H3    
      Total    1.1275  0.6741  0.1984
 
      Total electronic spin=    2.000000
--
 
 
 
      Input file to MOLDEN was generated!
 
 
      Input file to MOLDEN was generated!
 
 
      Input file to MOLDEN was generated!
 
 
      Input file to MOLDEN was generated!
 
 
      Input file to MOLDEN was generated!
 
      Average orbitals are written to the RASORB file
      Natural orbitals for root   1 are written to the RASORB.1 file
      Natural orbitals for root   2 are written to the RASORB.2 file
      Natural orbitals for root   3 are written to the RASORB.3 file
      Natural orbitals for root   4 are written to the RASORB.4 file
      Spin density orbitals for root   1 are written to the SPDORB.1 file
      Spin density orbitals for root   2 are written to the SPDORB.2 file
      Spin density orbitals for root   3 are written to the SPDORB.3 file
      Spin density orbitals for root   4 are written to the SPDORB.4 file
 
--- Stop Module: rasscf at Fri Mar 22 16:31:35 2024 /rc=_RC_ALL_IS_WELL_ ---
--- Module rasscf spent 2 seconds ---

>>> COPY MOLCAS.JobIph MOLCAS.3.JobIph

>>> COPY MOLCAS.1.JobIph JOB001

>>> COPY MOLCAS.2.JobIph JOB002

>>> COPY MOLCAS.3.JobIph JOB003

*** symbolic link created: INPORB -> MOLCAS.RasOrb
--- Start Module: rassi at Fri Mar 22 16:31:35 2024 ---
 
()()()()()()()()()()()()()()()()()()()()()()()()()()()()()()()()()()()()()()()()()()()()()()()()()()

                                               &RASSI

                                   only a single process is used
                       available to each process: 10 GB of memory, 1 thread?
                                            pid: 2115118
()()()()()()()()()()()()()()()()()()()()()()()()()()()()()()()()()()()()()()()()()()()()()()()()()()
 
 
      ********************************************************************************
      *                                                                              *
      *                             General data section                             *
      *                                                                              *
      ********************************************************************************
 
   Specific data for JOBIPH file 
 JOB001                                                                         
                                                  
   -------------------------------------
 
   Header from SEWARD:
                                                                               
        Integrals generated by Gateway/Seward, Fri Mar 22 16:31:27 2024        
 
   CASSCF title (first line only):
       (No title given)                                                        
 
   STATE IRREP:                             1
   SPIN MULTIPLICITY:                       1
   ACTIVE ELECTRONS:                        8
   MAX RAS1 HOLES:                          0
   MAX RAS3 ELECTRONS:                      0
   NR OF CONFIG:                          105
 
   Specific data for JOBIPH file 
 JOB002                                                                         
                                                  
   -------------------------------------
 
   Header from SEWARD:
                                                                               
        Integrals generated by Gateway/Seward, Fri Mar 22 16:31:27 2024        
 
   CASSCF title (first line only):
       (No title given)                                                        
 
   STATE IRREP:                             1
   SPIN MULTIPLICITY:                       2
   ACTIVE ELECTRONS:                        7
   MAX RAS1 HOLES:                          0
   MAX RAS3 ELECTRONS:                      0
   NR OF CONFIG:                          210
 
   Specific data for JOBIPH file 
 JOB003                                                                         
                                                  
   -------------------------------------
 
   Header from SEWARD:
                                                                               
        Integrals generated by Gateway/Seward, Fri Mar 22 16:31:27 2024        
 
   CASSCF title (first line only):
       (No title given)                                                        
 
   STATE IRREP:                             1
   SPIN MULTIPLICITY:                       3
   ACTIVE ELECTRONS:                        8
   MAX RAS1 HOLES:                          0
   MAX RAS3 ELECTRONS:                      0
   NR OF CONFIG:                          105
 ###############################################################################
 ###############################################################################
 ###                                                                         ###
 ###                                                                         ###
 ###    WARNING: EJOB used when HEFF is available, possible                  ###
 ###    extra interaction between states is ignored!                         ###
 ###                                                                         ###
 ###                                                                         ###
 ###############################################################################
 ###############################################################################
 
   The following data are common to all the states:
   ------------------------------------------------
   (note: frozen counts as inactive, deleted as secondary)
 
      Nr of irreps: 1
 
                 Total     No./Irrep 
      Irrep                  1
                             a
 
      INACTIVE       5       5
      ACTIVE         6       6
      SECONDARY     17      17
      BASIS         28      28
 
      RAS1           0       0
      RAS2           6       6
      RAS3           0       0
 
        MATRIX ELEMENTS WILL BE COMPUTED FOR THE FOLLOWING ONE-ELECTRON OPERATOR
 S, UNLESS ZERO BY SYMMETRY.
   (Herm=Hermitian, Anti=Antihermitian, Sing=Singlet operator, Trip=Triplet oper
 ator)
     MLTPL  0   1 (HERMSING)     MLTPL  0   1 (ANTITRIP)     MLTPL  1   1 (HERMSING)
     MLTPL  1   1 (ANTITRIP)     MLTPL  1   2 (HERMSING)     MLTPL  1   2 (ANTITRIP)
     MLTPL  1   3 (HERMSING)     MLTPL  1   3 (ANTITRIP)     MLTPL  2   1 (HERMSING)
     MLTPL  2   2 (HERMSING)     MLTPL  2   3 (HERMSING)     MLTPL  2   4 (HERMSING)
     MLTPL  2   5 (HERMSING)     MLTPL  2   6 (HERMSING)     VELOCITY   1 (ANTISING)
     VELOCITY   2 (ANTISING)     VELOCITY   3 (ANTISING)     ANGMOM     1 (ANTISING)
     ANGMOM     2 (ANTISING)     ANGMOM     3 (ANTISING)     MLTPV  2   1 (ANTISING)
     MLTPV  2   2 (ANTISING)     MLTPV  2   3 (ANTISING)     MLTPV  2   4 (ANTISING)
     MLTPV  2   5 (ANTISING)     MLTPV  2   6 (ANTISING)     AMFI       1 (ANTITRIP)
     AMFI       2 (ANTITRIP)     AMFI       3 (ANTITRIP)
 
       EIGENSTATES OF A SPIN-FREE HAMILTONIAN WILL BE COMPUTED BASED ON:
 
  a Hamiltonian matrix assumed to be diagonal with energies read from the wavefu
 nction file(s).
 
  SO coupling elements will be added.
 
        MATRIX ELEMENTS OVER SPIN EIGENSTATES FOR:
     MLTPL  0   1 (HERMSING)     MLTPL  0   1 (ANTITRIP)     MLTPL  1   1 (HERMSING)
     MLTPL  1   1 (ANTITRIP)     MLTPL  1   2 (HERMSING)     MLTPL  1   2 (ANTITRIP)
     MLTPL  1   3 (HERMSING)     MLTPL  1   3 (ANTITRIP)     MLTPL  2   1 (HERMSING)
     MLTPL  2   2 (HERMSING)     MLTPL  2   3 (HERMSING)     MLTPL  2   4 (HERMSING)
     MLTPL  2   5 (HERMSING)     MLTPL  2   6 (HERMSING)     VELOCITY   1 (ANTISING)
     VELOCITY   2 (ANTISING)     VELOCITY   3 (ANTISING)     ANGMOM     1 (ANTISING)
     ANGMOM     2 (ANTISING)     ANGMOM     3 (ANTISING)     MLTPV  2   1 (ANTISING)
     MLTPV  2   2 (ANTISING)     MLTPV  2   3 (ANTISING)     MLTPV  2   4 (ANTISING)
     MLTPV  2   5 (ANTISING)     MLTPV  2   6 (ANTISING)     AMFI       1 (ANTITRIP)
     AMFI       2 (ANTITRIP)     AMFI       3 (ANTITRIP)
 
       EIGENSTATES OF SPIN-ORBIT HAMILTONIAN WILL BE COMPUTED
 
  Nr of states:                     9
 
[...]
 
 
 
      ****************************************************************************************************
      *                                                                                                  *
      *                                         Spin-orbit section                                       *
      *                                                                                                  *
      ****************************************************************************************************
 
 
 Complex SO-Hamiltonian matrix elements over
 spin components of spin-free eigenstates (SFS):
 (In cm-1. Print threshold:      0.000 cm-1)
 ----------------------------------------------------------------------
 
  I1  S1  MS1    I2  S2  MS2    Real part    Imag part      Absolute
     1  0.0  0.0    1  0.0  0.0         0.000         0.000         0.000
     2  0.0  0.0    1  0.0  0.0         0.000         0.000         0.000
     2  0.0  0.0    2  0.0  0.0         0.000         0.000         0.000
     3  0.0  0.0    1  0.0  0.0         0.000         0.000         0.000
     3  0.0  0.0    2  0.0  0.0         0.000         0.000         0.000
     3  0.0  0.0    3  0.0  0.0         0.000         0.000         0.000
     4  0.0  0.0    1  0.0  0.0         0.000         0.000         0.000
     4  0.0  0.0    2  0.0  0.0         0.000         0.000         0.000
     4  0.0  0.0    3  0.0  0.0         0.000         0.000         0.000
     4  0.0  0.0    4  0.0  0.0         0.000         0.000         0.000
     5  0.0  0.0    1  0.0  0.0         0.000         0.000         0.000
     5  0.0  0.0    2  0.0  0.0         0.000         0.000         0.000
     5  0.0  0.0    3  0.0  0.0         0.000         0.000         0.000
     5  0.0  0.0    4  0.0  0.0         0.000         0.000         0.000
     5  0.0  0.0    5  0.0  0.0         0.000         0.000         0.000
     6  0.0  0.0    1  0.0  0.0         0.000         0.000         0.000
     6  0.0  0.0    2  0.0  0.0         0.000         0.000         0.000
     6  0.0  0.0    3  0.0  0.0         0.000         0.000         0.000
     6  0.0  0.0    4  0.0  0.0         0.000         0.000         0.000
     6  0.0  0.0    5  0.0  0.0         0.000         0.000         0.000
     6  0.0  0.0    6  0.0  0.0         0.000         0.000         0.000
     7  0.5 -0.5    1  0.0  0.0         0.000         0.000         0.000
     7  0.5 -0.5    2  0.0  0.0         0.000         0.000         0.000
     7  0.5 -0.5    3  0.0  0.0         0.000         0.000         0.000
     7  0.5 -0.5    4  0.0  0.0         0.000         0.000         0.000
     7  0.5 -0.5    5  0.0  0.0         0.000         0.000         0.000
     7  0.5 -0.5    6  0.0  0.0         0.000         0.000         0.000
     7  0.5 -0.5    7  0.5 -0.5         0.000        -0.000         0.000
     8  0.5  0.5    1  0.0  0.0         0.000         0.000         0.000
     8  0.5  0.5    2  0.0  0.0         0.000         0.000         0.000
     8  0.5  0.5    3  0.0  0.0         0.000         0.000         0.000
     8  0.5  0.5    4  0.0  0.0         0.000         0.000         0.000
     8  0.5  0.5    5  0.0  0.0         0.000         0.000         0.000
     8  0.5  0.5    6  0.0  0.0         0.000         0.000         0.000
     8  0.5  0.5    7  0.5 -0.5        -0.000        -0.000         0.000
     8  0.5  0.5    8  0.5  0.5         0.000         0.000         0.000
     9  0.5 -0.5    1  0.0  0.0         0.000         0.000         0.000
     9  0.5 -0.5    2  0.0  0.0         0.000         0.000         0.000
     9  0.5 -0.5    3  0.0  0.0         0.000         0.000         0.000
     9  0.5 -0.5    4  0.0  0.0         0.000         0.000         0.000
     9  0.5 -0.5    5  0.0  0.0         0.000         0.000         0.000
     9  0.5 -0.5    6  0.0  0.0         0.000         0.000         0.000
     9  0.5 -0.5    7  0.5 -0.5         0.000         1.676         1.676
     9  0.5 -0.5    8  0.5  0.5       157.144        -7.989       157.347
     9  0.5 -0.5    9  0.5 -0.5         0.000         0.000         0.000
    10  0.5  0.5    1  0.0  0.0         0.000         0.000         0.000
    10  0.5  0.5    2  0.0  0.0         0.000         0.000         0.000
    10  0.5  0.5    3  0.0  0.0         0.000         0.000         0.000
    10  0.5  0.5    4  0.0  0.0         0.000         0.000         0.000
    10  0.5  0.5    5  0.0  0.0         0.000         0.000         0.000
    10  0.5  0.5    6  0.0  0.0         0.000         0.000         0.000
    10  0.5  0.5    7  0.5 -0.5      -157.144        -7.989       157.347
    10  0.5  0.5    8  0.5  0.5         0.000        -1.676         1.676
    10  0.5  0.5    9  0.5 -0.5         0.000        -0.000         0.000
    10  0.5  0.5   10  0.5  0.5         0.000        -0.000         0.000
    11  1.0 -1.0    1  0.0  0.0         2.176         5.300         5.730
    11  1.0 -1.0    2  0.0  0.0        -0.004        -0.070         0.070
    11  1.0 -1.0    3  0.0  0.0         3.149        61.396        61.477
    11  1.0 -1.0    4  0.0  0.0        -4.784         2.377         5.342
    11  1.0 -1.0    5  0.0  0.0       -70.703         3.566        70.793
    11  1.0 -1.0    6  0.0  0.0        53.558        -2.712        53.626
    11  1.0 -1.0    7  0.5 -0.5         0.000         0.000         0.000
    11  1.0 -1.0    8  0.5  0.5         0.000         0.000         0.000
    11  1.0 -1.0    9  0.5 -0.5         0.000         0.000         0.000
    11  1.0 -1.0   10  0.5  0.5         0.000         0.000         0.000
    11  1.0 -1.0   11  1.0 -1.0         0.000         0.000         0.000
    12  1.0  0.0    1  0.0  0.0         0.000      -180.944       180.944
    12  1.0  0.0    2  0.0  0.0         0.000        -0.004         0.004
    12  1.0  0.0    3  0.0  0.0         0.000         3.673         3.673
    12  1.0  0.0    4  0.0  0.0         0.000       -71.254        71.254
    12  1.0  0.0    5  0.0  0.0         0.000         2.012         2.012
    12  1.0  0.0    6  0.0  0.0         0.000        -1.172         1.172
    12  1.0  0.0    7  0.5 -0.5         0.000         0.000         0.000
    12  1.0  0.0    8  0.5  0.5         0.000         0.000         0.000
    12  1.0  0.0    9  0.5 -0.5         0.000         0.000         0.000
    12  1.0  0.0   10  0.5  0.5         0.000         0.000         0.000
    12  1.0  0.0   11  1.0 -1.0        -0.000        -0.000         0.000
    12  1.0  0.0   12  1.0  0.0         0.000         0.000         0.000
    13  1.0  1.0    1  0.0  0.0         2.176        -5.300         5.730
    13  1.0  1.0    2  0.0  0.0        -0.004         0.070         0.070
    13  1.0  1.0    3  0.0  0.0         3.149       -61.396        61.477
    13  1.0  1.0    4  0.0  0.0        -4.784        -2.377         5.342
    13  1.0  1.0    5  0.0  0.0       -70.703        -3.566        70.793
    13  1.0  1.0    6  0.0  0.0        53.558         2.712        53.626
    13  1.0  1.0    7  0.5 -0.5         0.000         0.000         0.000
    13  1.0  1.0    8  0.5  0.5         0.000         0.000         0.000
    13  1.0  1.0    9  0.5 -0.5         0.000         0.000         0.000
    13  1.0  1.0   10  0.5  0.5         0.000         0.000         0.000
    13  1.0  1.0   11  1.0 -1.0         0.000         0.000         0.000
    13  1.0  1.0   12  1.0  0.0        -0.000        -0.000         0.000
    13  1.0  1.0   13  1.0  1.0         0.000        -0.000         0.000
 ----------------------------------------------------------------------
 
       Total energies including SO-coupling:
::    SO-RASSI State    1     Total energy:    -398.69129770956408
::    SO-RASSI State    2     Total energy:    -398.52913537837117
::    SO-RASSI State    3     Total energy:    -398.52913388647244
::    SO-RASSI State    4     Total energy:    -398.52912865528083
::    SO-RASSI State    5     Total energy:    -398.50833283647438
::    SO-RASSI State    6     Total energy:    -398.47874839336686
::    SO-RASSI State    7     Total energy:    -398.36745480579197
::    SO-RASSI State    8     Total energy:    -398.36745480579197
::    SO-RASSI State    9     Total energy:    -398.35221829021401
::    SO-RASSI State   10     Total energy:    -398.34625754269410
::    SO-RASSI State   11     Total energy:    -398.28246828925762
::    SO-RASSI State   12     Total energy:    -398.23350168623466
::    SO-RASSI State   13     Total energy:    -398.23350168623466
 
 
   Eigenvalues of complex Hamiltonian:
   -----------------------------------
  (Shifted by EMIN (a.u.) =       -398.6912935097)
 
 SO State       Relative EMIN(au)   Rel lowest level(eV)    D:o, cm**(-1)
 
     1            -0.0000041998        0.0000000000              0.0000
     2             0.1621581314        4.4126618286          35590.5179
     3             0.1621596233        4.4127024253          35590.8453
     4             0.1621648545        4.4128447732          35591.9934
     5             0.1829606733        4.9787278311          40156.1481
     6             0.2125451164        5.7837615394          46649.1828
     7             0.3238387039        8.8122143376          71075.3019
     8             0.3238387039        8.8122143376          71075.3019
     9             0.3390752195        9.2268210480          74419.3306
    10             0.3450359670        9.3890212511          75727.5634
    11             0.4088252205       11.1248152647          89727.6863
    12             0.4577918235       12.4572644127         100474.6135
    13             0.4577918235       12.4572644127         100474.6135
 
 
 Weights of the five most important spin-orbit-free states for each spin-orbit s
 tate.
 
 SO State  Total energy (au)           Spin-free states, spin, and weights
 -------------------------------------------------------------------------------
 ------------------------
    1        -0.000004       1 0.0  1.0000    9 1.0  0.0000    4 0.0  0.0000    5 0.0  0.0000    6 0.0  0.0000
    2         0.162158       9 1.0  0.9999    3 0.0  0.0001    2 0.0  0.0000    5 0.0  0.0000    4 0.0  0.0000
    3         0.162160       9 1.0  1.0000    5 0.0  0.0000    6 0.0  0.0000    4 0.0  0.0000    1 0.0  0.0000
    4         0.162165       9 1.0  1.0000    1 0.0  0.0000    4 0.0  0.0000    5 0.0  0.0000    6 0.0  0.0000
    5         0.182961       2 0.0  1.0000    9 1.0  0.0000    3 0.0  0.0000    5 0.0  0.0000    1 0.0  0.0000
    6         0.212545       3 0.0  0.9999    9 1.0  0.0001    2 0.0  0.0000    5 0.0  0.0000    6 0.0  0.0000
    7         0.323839       7 0.5  1.0000    8 0.5  0.0000    9 1.0  0.0000    6 0.0  0.0000    5 0.0  0.0000
    8         0.323839       7 0.5  1.0000    8 0.5  0.0000    9 1.0  0.0000    6 0.0  0.0000    5 0.0  0.0000
    9         0.339075       4 0.0  1.0000    9 1.0  0.0000    5 0.0  0.0000    1 0.0  0.0000    6 0.0  0.0000
   10         0.345036       5 0.0  1.0000    9 1.0  0.0000    6 0.0  0.0000    4 0.0  0.0000    1 0.0  0.0000
   11         0.408825       6 0.0  1.0000    9 1.0  0.0000    5 0.0  0.0000    4 0.0  0.0000    1 0.0  0.0000
   12         0.457792       8 0.5  1.0000    7 0.5  0.0000    9 1.0  0.0000    6 0.0  0.0000    5 0.0  0.0000
   13         0.457792       8 0.5  1.0000    7 0.5  0.0000    9 1.0  0.0000    6 0.0  0.0000    5 0.0  0.0000
 -------------------------------------------------------------------------------
 ------------------------
 
 
      ****************************************************************************************************
      *                                                                                                  *
      *                                    Special properties section                                    *
      *                                                                                                  *
      ****************************************************************************************************
 
 
++ Dipole transition strengths (SO states):
   ----------------------------------------
        for osc. strength at least   1.00000000E-05
 
      From   To        Osc. strength     Einstein coefficients Ax, Ay, Az (sec-1)    Total A (sec-1)
     -----------------------------------------------------------------------------------------------
         1    6       1.14666470E-04  1.65711017E+05  4.35974648E+02  2.96475021E+02  1.66443467E+05
         1    9       2.05473275E-02  1.47078490E+05  9.22199196E+04  7.56654750E+07  7.59047735E+07
         1   10       6.33502750E-03  5.39490724E+04  2.39788863E+07  1.99691212E+05  2.42325266E+07
         1   11       9.58020772E-01  1.36695429E+07  5.13084990E+09  2.99449753E+05  5.14481890E+09
         4   11       1.50237074E-05  7.81693766E+01  2.92884352E+04  2.23213723E+00  2.93688367E+04
         5    6       7.84433009E-03  5.88109258E+02  2.19984903E+05  2.09096460E+01  2.20593922E+05
         5    9       2.23717404E-05  1.74414275E+04  4.58872338E+01  3.12046090E+01  1.75185193E+04
         5   10       3.46739655E-03  2.91361834E+06  7.66553588E+03  5.21277980E+03  2.92649665E+06
         5   11       8.04183878E-03  1.31234195E+07  3.45268429E+04  2.34792235E+04  1.31814255E+07
         6    9       5.69365796E-03  2.91591333E+06  7.67157386E+03  5.21688579E+03  2.92880179E+06
         6   10       2.05327722E-05  1.15296170E+04  3.03336548E+01  2.06277376E+01  1.15805784E+04
         7   12       8.72349450E-03  5.00716231E+06  1.31735107E+04  8.95835742E+03  5.02929418E+06
         8   13       8.72349450E-03  5.00716231E+06  1.31735107E+04  8.95835742E+03  5.02929418E+06
         9   10       2.86760410E-03  8.44605395E+00  3.26486037E+03  3.38179430E-01  3.27364461E+03
        10   11       9.29153788E-05  2.36835100E+01  1.71622431E+01  1.21068393E+04  1.21476851E+04
     -----------------------------------------------------------------------------------------------
--
 
++ Velocity transition strengths (SO states):
   ------------------------------------------
        for osc. strength at least   1.00000000E-05
 
      From   To        Osc. strength     Einstein coefficients Ax, Ay, Az (sec-1)    Total A (sec-1)
     -----------------------------------------------------------------------------------------------
         1    6       4.04901981E-03  5.85146807E+06  1.53948228E+04  1.04689122E+04  5.87733180E+06
         1    9       2.44709122E-02  1.69910824E+05  4.20069939E+04  9.01871399E+07  9.03990577E+07
         1   10       2.50613281E-03  1.86077147E+04  9.33693845E+06  2.30825795E+05  9.58637196E+06
         1   11       7.65427722E-01  1.09242093E+07  4.09937143E+09  2.48853972E+05  4.11054449E+09
         4   11       3.18642879E-05  1.65606163E+02  6.21197388E+04  4.01158975E+00  6.22893566E+04
         5    6       6.79691094E-04  4.85595511E+01  1.90582563E+04  7.08202029E+00  1.91138978E+04
         5    9       2.13075496E-05  1.66117645E+04  4.37044455E+01  2.97202518E+01  1.66851892E+04
         5   10       1.99798427E-03  1.67888603E+06  4.41703736E+03  3.00370954E+03  1.68630677E+06
         5   11       6.04339966E-03  9.86218089E+06  2.59467414E+04  1.76445133E+04  9.90577215E+06
         6    9       1.31602710E-02  6.73981648E+06  1.77320084E+04  1.20582640E+04  6.76960675E+06
         6   10       3.96388859E-05  2.22581329E+04  5.85596654E+01  3.98222171E+01  2.23565147E+04
         7   12       1.41272486E-02  8.10884062E+06  2.13338198E+04  1.45075970E+04  8.14468204E+06
         8   13       1.41272486E-02  8.10884062E+06  2.13338198E+04  1.45075970E+04  8.14468204E+06
         9   10       6.76415366E-03  2.01422949E+01  7.70168652E+03  1.00148581E-01  7.72192896E+03
         9   11       7.95590721E-03  3.22863331E+03  1.24034356E+06  5.16200931E+01  1.24362381E+06
        10   11       3.69188201E-05  2.79683106E+00  3.67180161E+03  1.15213968E+03  4.82673812E+03
     -----------------------------------------------------------------------------------------------
--
 
++ Length and velocity gauge comparison (SO states):
 
 --------------------------------------------------
 A comparison between the dipole oscillator strengths in 
 length and velocity gauge will be performed
 
     All dipole oscillator differences above the tolerance of   1.00000000E-01  will be printed 
 
 Due to basis set deficiency these oscillator may be problematic 
 
 The tolerance is defined as ABS(1-O_l/O_v) 
 O_l : dipole oscillator strength in length gauge
 O_p : dipole oscillator strength in velocity gauge
 --------------------------------------------------
 
  Problematic transitions have been found
 
      From   To       Difference (%) Osc. st. (len.) Osc. st. (vel.)
     ---------------------------------------------------------------
         1    6            97.168044  1.14666470E-04  4.04901981E-03
         1    9            16.033667  2.05473275E-02  2.44709122E-02
         1   10           152.780997  6.33502750E-03  2.50613281E-03
         1   11            25.161494  9.58020772E-01  7.65427722E-01
         4   11            52.850955  1.50237074E-05  3.18642879E-05
         5    6          1054.102233  7.84433009E-03  6.79691094E-04
         5   10            73.544737  3.46739655E-03  1.99798427E-03
         5   11            33.068128  8.04183878E-03  6.04339966E-03
         6    9            56.736013  5.69365796E-03  1.31602710E-02
         6   10            48.200431  2.05327722E-05  3.96388859E-05
         7   12            38.250577  8.72349450E-03  1.41272486E-02
         8   13            38.250577  8.72349450E-03  1.41272486E-02
         9   10            57.605870  2.86760410E-03  6.76415366E-03
         9   11      --------------- below threshold  7.95590721E-03
        10   11           151.674833  9.29153788E-05  3.69188201E-05
     ---------------------------------------------------------------
 
 Number of problematic transitions =                     15
 
--
 
 Electric-dipole - electric-octupole not included
++ I/O STATISTICS
 
  I. General I/O information
  - - - - - - - - - - - - - - - - - - - - - - - - - - - - - - - - - - - - - - - - - - -
  Unit  Name          Flsize      Write/Read            MBytes           Write/Read
                      (MBytes)       Calls              In/Out           Time, sec.
  - - - - - - - - - - - - - - - - - - - - - - - - - - - - - - - - - - - - - - - - - - -
   1  ANNI              0.00 .       0/       0 .      0.0/      0.0 .       0/       0
   2  RUNFILE           0.25 .     427/    7692 .      3.0/     55.8 .       0/       0
   3  ONEINT            1.46 .       0/    2757 .      0.0/   2496.5 .       0/       0
   4  JOB001            1.22 .       0/      83 .      0.0/      1.1 .       0/       0
   5  JOB002            1.22 .       0/      51 .      0.0/      1.1 .       0/       0
   6  JOB003            1.22 .       0/      43 .      0.0/      1.1 .       0/       0
  - - - - - - - - - - - - - - - - - - - - - - - - - - - - - - - - - - - - - - - - - - -
   *  TOTAL             5.38 .     427/   10626 .      3.0/   2555.6 .       0/       0
  - - - - - - - - - - - - - - - - - - - - - - - - - - - - - - - - - - - - - - - - - - -
 
  II. I/O Access Patterns
  - - - - - - - - - - - - - - - - - - - -
  Unit  Name               % of random
                         Write/Read calls
  - - - - - - - - - - - - - - - - - - - -
   1  ANNI                 0.0/   0.0
   2  RUNFILE             28.6/  10.7
   3  ONEINT               0.0/  97.6
   4  JOB001               0.0/  65.1
   5  JOB002               0.0/  74.5
   6  JOB003               0.0/  79.1
  - - - - - - - - - - - - - - - - - - - -
--
--- Stop Module: rassi at Fri Mar 22 16:31:40 2024 /rc=_RC_ALL_IS_WELL_ ---
--- Module rassi spent 4 seconds ---

.##################.
.# Happy landing! #.
.##################.

    Timing: Wall=13.71 User=12.00 System=1.58
