   This run of MOLCAS is using the pymolcas driver

                             OPE
                             OPE          NMOL  CASOP  ENMOLC A   SO
                 OPE        NMOLC        AS  OP EN  MO LC     AS  OP
                OPENM       OL CA        SO  PE NM  OL CA     SOP EN
                OP EN      MO   LC       AS  OP ENMOL  CASO   PENMOL
                OP  EN     MO   LC       AS  OP EN     MO     LC ASO
               OP   E  NMOL  C  AS       OP  EN MO     LC     AS  OP
               OP  E   NMO   LC AS        OPEN  MO     LCASOP EN   M
               O  PEN   MO  LCA  SO
            OPE   NMO   L   CAS    OP
        OPENMOL  CASOP     ENMOL   CASOPE
     OPENMOLCA   SOPENMOLCASOPEN   MOLCASOPE
    OPENMOLCAS   OP           EN   MOL    CAS
    OPENMOLCAS       OP  ENM        O     LCA
    OPENMOLCAS    OPEN  MOLCASO     P  E  NMO
    OPENMOLCAS     OP               E  N  MOL
    OPENMOLCA   SO           PENM   O  L  CAS    OPEN    MO    LCAS
    OPENMOLCA   SOP           ENM   O  L  CAS   OP  EN  MOLC  AS   O
    OPENMOLCA   SOPE           NM      O  LCA   S      OP  EN MO
    OPENMOLC                AS         O  PEN   M      OL  CA  SOPE
    OPENMO        LCASOPE  NMOL        C  ASO   P      ENMOLC     AS
    OPE     NMO      LCA  SO     P     E   NM   OL  CA SO  PE N   MO
          OPENMOLCA            SOPE   NMO        LCAS  O    P  ENMO
     OPENMOLCASOPENMOLCASOPENMOLCASOPENMOLCA
        OPENMOLCASOPENMOLCASOPENMOLCASOPE
            OPENMOLCASOPENMOLCASOPENM
               OPENMOLCASOPENMOLCA        version: v23.10
                   OPENMOLCASO
                       OPE                tag:

 OpenMolcas is free software; you can redistribute it and/or modify it
 under the terms of the GNU Lesser General Public License version 2.1.
 OpenMolcas is distributed in the hope that it will be useful, but it
 is provided "as is" and without any express or implied warranties.
 For more details see the full text of the license in the file
 LICENSE or in <http://www.gnu.org/licenses/>.

                 Copyright (C) The OpenMolcas Authors
           For the author list and the recommended citation,
                   consult the file CONTRIBUTORS.md

           *************************************************
           * pymolcas version py2.25                       *
           *   build 2b27fa14244bdc32cb1957e6230cd793      *
           *   (after the EMIL interpreter by V. Veryazov) *
           *************************************************

configuration info
------------------
Host name: manganese.itc.univie.ac.at (Linux)
C Compiler ID: Clang
C flags: -std=gnu99
Fortran Compiler ID: Intel
Fortran flags: -fpp -i8 -heap-arrays
Definitions: _MOLCAS_;_I8_;_LINUX_
Parallel: OFF (GA=OFF)


   ---------------------------------------------------------------------------
  |
  |           Project: MOLCAS
  |    Submitted from: /public/manganese/scratch/tmp/sascha.925337/WORK/master
  |      Scratch area: /public/manganese/scratch/tmp/sascha.925337/WORK/master
  |   Save outputs to: WORKDIR
  |            Molcas: /usr/license/openmolcas/v23.10
  |
  | Scratch area is NOT empty
  |
  |        MOLCASMEM = 10000
  |    MOLCAS_DRIVER = /usr/license/openmolcas/v23.10/pymolcas
  |    MOLCAS_NPROCS = 1
  |    MOLCAS_SOURCE = /usr/license/openmolcas/v23.10
  | MOLCAS_STRUCTURE = 0
  |
   ---------------------------------------------------------------------------

++ ---------   Input file   ---------

&GATEWAY
COORD=MOLCAS.xyz
GROUP=NOSYM
BASIS=cc-pvdz
BASLIB
/user/sascha/development/eci/sharc_main/examples/SHARC_MOLCAS/basisset

RICD
CDTHreshold=0.0001

&SEWARD

&RASSCF
SPIN=1
NACTEL=8 0 0
INACTIVE=5
RAS2=6
ITERATIONS=200,100
CIROOT=6 6 1
ORBLISTING=NOTHING
PRWF=0.1
THRS=0.000000010000 0.000100000000 0.000100000000

&CASPT2
SHIFT=0.0
IMAGINARY= 0.000
IPEASHIFT= 0.25
MAXITER=120
NOMULT

OUTPUT=BRIEF
PRWF=0.1

>>> COPY MOLCAS.JobMix MOLCAS.1.JobIph

&RASSCF
SPIN=2
NACTEL=7 0 0
INACTIVE=5
RAS2=6
ITERATIONS=200,100
CIROOT=4 4 1
ORBLISTING=NOTHING
PRWF=0.1
THRS=0.000000010000 0.000100000000 0.000100000000

&CASPT2
SHIFT=0.0
IMAGINARY= 0.000
IPEASHIFT= 0.25
MAXITER=120
NOMULT

OUTPUT=BRIEF
PRWF=0.1

>>> COPY MOLCAS.JobMix MOLCAS.2.JobIph

&RASSCF
SPIN=3
NACTEL=8 0 0
INACTIVE=5
RAS2=6
ITERATIONS=200,100
CIROOT=4 4 1
ORBLISTING=NOTHING
PRWF=0.1
THRS=0.000000010000 0.000100000000 0.000100000000

&CASPT2
SHIFT=0.0
IMAGINARY= 0.000
IPEASHIFT= 0.25
MAXITER=120
NOMULT

OUTPUT=BRIEF
PRWF=0.1

>>> COPY MOLCAS.JobMix MOLCAS.3.JobIph

>>> COPY MOLCAS.1.JobIph JOB001

>>> COPY MOLCAS.2.JobIph JOB002

>>> COPY MOLCAS.3.JobIph JOB003

&RASSI
NROFJOBIPHS
3 6 2 1
1 2 3 4 5 6
1 2
1
MEIN
EJOB

-- ----------------------------------

--- Start Module: gateway at Fri Mar 22 17:06:23 2024 ---
 
()()()()()()()()()()()()()()()()()()()()()()()()()()()()()()()()()()()()()()()()()()()()()()()()()()

                                              &GATEWAY

                                   only a single process is used
                       available to each process: 10 GB of memory, 1 thread?
                                            pid: 2145909
()()()()()()()()()()()()()()()()()()()()()()()()()()()()()()()()()()()()()()()()()()()()()()()()()()
 
 
 
 Basis Set     1 Label: S.CC-PVDZ
 Basis set is read from library:/user/sascha/development/eci/sharc_main/examples/SHARC_MOLCAS/basisset 
 
 
 Basis Set     2 Label: H.CC-PVDZ
 Basis set is read from library:/user/sascha/development/eci/sharc_main/examples/SHARC_MOLCAS/basisset 
 
++    Symmetry information:
      ---------------------
 
                    Character Table for C1 
 
                             E  
                    a        1  x, y, xy, Rz, z, xz, Ry, yz, Rx, I
--
 
 
++    Basis set information:
      ----------------------
 
 
      Basis set label: S.CC-PVDZ.........
 
      Electronic valence basis set:
      ------------------
      Associated Effective Charge  16.000000 au
      Associated Actual Charge     16.000000 au
      Nuclear Model: Point charge
 
      Shell  nPrim  nBasis  Cartesian Spherical Contaminant
         s      12       4        X                  
         p       8       3        X                  
         d       1       1                 X         
 
 
      Basis set label: H.CC-PVDZ.........
 
      Electronic valence basis set:
      ------------------
      Associated Effective Charge   1.000000 au
      Associated Actual Charge      1.000000 au
      Nuclear Model: Point charge
 
      Shell  nPrim  nBasis  Cartesian Spherical Contaminant
         s       4       2        X                  
         p       1       1        X                  
--
 
 
++    Molecular structure info:
      -------------------------
 
                    ************************************************ 
                    **** Cartesian Coordinates / Bohr, Angstrom **** 
                    ************************************************ 
 
     Center  Label                x              y              z                     x              y              z
        1      S1               0.000000       0.000000       0.001589              0.000000       0.000000       0.000841
        2      H2               0.000000       1.842103       2.235421              0.000000       0.974799       1.182934
        3      H3              -0.188973      -1.842103       2.235421             -0.100000      -0.974799       1.182934
 
                    *************************************** 
                    *    InterNuclear Distances / Bohr    * 
                    *************************************** 
 
               1 S1            2 H2            3 H3    
    1 S1       0.000000
    2 H2       2.895401        0.000000
    3 H3       2.901562        3.689050        0.000000
 
                    ******************************************* 
                    *    InterNuclear Distances / Angstrom    * 
                    ******************************************* 
 
               1 S1            2 H2            3 H3    
    1 S1       0.000000
    2 H2       1.532180        0.000000
    3 H3       1.535440        1.952161        0.000000
 
                    ************************************** 
                    *    Valence Bond Angles / Degree    * 
                    ************************************** 
                          Atom centers                 Phi
                      2 H2       1 S1       3 H3        79.04
--
 
 
            Nuclear Potential Energy             11.31134847 au
 
--- Stop Module: gateway at Fri Mar 22 17:06:24 2024 /rc=_RC_ALL_IS_WELL_ ---

--- Start Module: seward at Fri Mar 22 17:06:24 2024 ---
 
()()()()()()()()()()()()()()()()()()()()()()()()()()()()()()()()()()()()()()()()()()()()()()()()()()

                                              &SEWARD

                                   only a single process is used
                       available to each process: 10 GB of memory, 1 thread?
                                            pid: 2145912
()()()()()()()()()()()()()()()()()()()()()()()()()()()()()()()()()()()()()()()()()()()()()()()()()()
 
               SEWARD will generate:
                  Multipole Moment integrals up to order  2
                  Kinetic Energy integrals
                  Nuclear Attraction integrals (point charge)
                  One-Electron Hamiltonian integrals
                  Velocity integrals
                  Orbital angular momentum around (-0.0056  0.0000  0.1341 )
                  Velocity quadrupole around (-0.0056  0.0000  0.1341 )
                  RI decomposed two-electron repulsion integrals stored Cholesky style
                   - acCD auxiliary basis
                   - CD Threshold:   0.10E-03
 
                   Integrals are discarded if absolute value <: 0.10E-13
                   Integral cutoff threshold is set to       <: 0.10E-15
 
            Nuclear Potential Energy             11.31134847 au
 
 
      Basis set specifications :
      Symmetry species         a  
      Basis functions           28
 
 
      Input file to MOLDEN was generated!
 
--- Stop Module: seward at Fri Mar 22 17:06:25 2024 /rc=_RC_ALL_IS_WELL_ ---

*** symbolic link created: INPORB -> MOLCAS.GssOrb
--- Start Module: rasscf at Fri Mar 22 17:06:25 2024 ---
 
()()()()()()()()()()()()()()()()()()()()()()()()()()()()()()()()()()()()()()()()()()()()()()()()()()

                                              &RASSCF

                                   only a single process is used
                       available to each process: 10 GB of memory, 1 thread?
                                            pid: 2145915
()()()()()()()()()()()()()()()()()()()()()()()()()()()()()()()()()()()()()()()()()()()()()()()()()()
 
 
      Header of the ONEINT file:
      --------------------------
      
      Integrals generated by Gateway/Seward, Fri Mar 22 17:06:24 2024
 
 
      OrdInt status: non-squared
 
 
      Cartesian coordinates in Angstrom:
      -----------------------------------------------------
      No.  Label        X            Y            Z        
      -----------------------------------------------------
       1   S1         0.00000000   0.00000000   0.00084100
       2   H2         0.00000000   0.97479900   1.18293400
       3   H3        -0.10000000  -0.97479900   1.18293400
      -----------------------------------------------------
      Nuclear repulsion energy =   11.31134847
 
++    Wave function specifications:
      -----------------------------
 
      Number of closed shell electrons          10
      Number of electrons in active shells       8
      Max number of holes in RAS1 space          0
      Max nr of electrons in RAS3 space          0
      Number of inactive orbitals                5
      Number of active orbitals                  6
      Number of secondary orbitals              17
      Spin quantum number                      0.0
      State symmetry                             1
--
 
++    Orbital specifications:
      -----------------------
 
      Symmetry species                           1
                                                 a
      Frozen orbitals                            0
      Inactive orbitals                          5
      Active orbitals                            6
      RAS1 orbitals                              0
      RAS2 orbitals                              6
      RAS3 orbitals                              0
      Secondary orbitals                        17
      Deleted orbitals                           0
      Number of basis functions                 28
--
 
++    CI expansion specifications:
      ----------------------------
 
      Number of CSFs                           105
      Number of determinants                   120
      Number of root(s) required                 6
      Root chosen for geometry opt.              6
      CI roots used                              1     2     3     4     5     6
      weights                                0.167 0.167 0.167 0.167 0.167 0.167
      highest root included in the CI            6
      max. size of the explicit Hamiltonian    105
--
 
++    Optimization specifications:
      ----------------------------
 
      RASSCF algorithm: LK RI/DF
      Maximum number of macro iterations       200
      Maximum number of SX iterations          100
      Threshold for RASSCF energy            0.100E-07
      Threshold for max MO rotation          0.100E-03
      Threshold for max BLB element          0.100E-03
      Level shift parameter                  0.500E+00
      Make Quasi-Newton update
--
 
      Orbitals from runfile: guessorb orbitals
      The MO-coefficients are taken from guessorb on runfile
 
      Total molecular charge    0.00
 
      ************************************************************************************************************************
      *                                                                                                                      *
      *                                            Wave function control section                                             *
      *                                                                                                                      *
      ************************************************************************************************************************
 
 
                                         RASSCF iterations: Energy and convergence statistics
                                         ----------------------------------------------------
 
      Iter CI   SX   CI       RASSCF       Energy    max ROT     max BLB   max BLB  Level Ln srch  Step   QN   Walltime
          iter iter root      energy       change     param      element    value   shift minimum  type update hh:mm:ss
 Nr of preliminary CI iterations:   1
        1   1   84    0  -398.36538354    0.00E+00   0.17E+00*   7  18 1  0.15E+00*  0.00   0.00    SX    NO    0:00:00
        2   1   19    0  -398.43716036   -0.72E-01* -0.69E-01*   6  13 1  0.27E-01*  0.00   0.00    SX    NO    0:00:00
        3   1   15    0  -398.44244265   -0.53E-02*  0.27E-01*  11  13 1 -0.91E-02*  0.00   0.00    SX    NO    0:00:00
        4   1   14    0  -398.44309703   -0.65E-03*  0.12E-01*  11  13 1 -0.38E-02*  0.00   0.00    SX    NO    0:00:00
        5   1   13    0  -398.44319995   -0.10E-03*  0.78E-02*  11  13 1 -0.16E-02*  0.00   1.69    LS   YES    0:00:00
        6   1   11    0  -398.44322034   -0.20E-04*  0.43E-03*   9  25 1  0.35E-03*  0.00   1.02    QN   YES    0:00:00
        7   1   10    0  -398.44322068   -0.34E-06*  0.11E-03*   7  12 1  0.52E-04   0.00   1.15    QN   YES    0:00:00
        8   1    6    0  -398.44322070   -0.21E-07*  0.20E-04    6  13 1  0.68E-05   0.00   1.07    QN   YES    0:00:00
        9   1    5    0  -398.44322070   -0.11E-09  -0.15E-04    6  13 1  0.30E-05   0.00   0.36    QN   YES    0:00:00
      Convergence after  9 iterations
       10   1    5    0  -398.44322070   -0.80E-10  -0.15E-04   10  13 1  0.76E-06   0.00   0.36    QN   YES    0:00:00
 
      ************************************************************************************************************************
                                                      Wave function printout:
                       occupation of active orbitals, and spin coupling of open shells (u,d: Spin up or down)
      ************************************************************************************************************************
 
      Note: transformation to natural orbitals
      has been made, which may change the order of the CSFs.
 
      printout of CI-coefficients larger than  0.10 for root  1
      energy=    -398.691294
      conf/sym  111111     Coeff  Weight
             1  222200  -0.97157 0.94395
            15  2u22d0   0.10830 0.01173
            38  2ud2ud   0.10422 0.01086
 
      printout of CI-coefficients larger than  0.10 for root  2
      energy=    -398.508333
      conf/sym  111111     Coeff  Weight
             2  222ud0   0.96011 0.92182
             4  222u0d   0.17078 0.02916
            10  22udud   0.10436 0.01089
 
      printout of CI-coefficients larger than  0.10 for root  3
      energy=    -398.478752
      conf/sym  111111     Coeff  Weight
             2  222ud0  -0.16881 0.02850
             4  222u0d   0.94668 0.89620
             8  22ud20   0.11092 0.01230
            18  2u2dud   0.15683 0.02460
            51  202u2d   0.10524 0.01108
 
      printout of CI-coefficients larger than  0.10 for root  4
      energy=    -398.352219
      conf/sym  111111     Coeff  Weight
             7  22u2d0   0.10695 0.01144
             9  22u20d  -0.73226 0.53621
            15  2u22d0   0.58031 0.33676
            17  2u220d   0.15662 0.02453
            31  220220  -0.17040 0.02904
            52  202202   0.13665 0.01867
 
      printout of CI-coefficients larger than  0.10 for root  5
      energy=    -398.346259
      conf/sym  111111     Coeff  Weight
             7  22u2d0  -0.67478 0.45532
            15  2u22d0  -0.10968 0.01203
            17  2u220d   0.66320 0.43984
            32  2202ud  -0.12419 0.01542
            37  2ud220   0.13684 0.01873
            40  2ud202  -0.14123 0.01994
 
      printout of CI-coefficients larger than  0.10 for root  6
      energy=    -398.282469
      conf/sym  111111     Coeff  Weight
             7  22u2d0   0.68366 0.46739
             9  22u20d   0.14237 0.02027
            15  2u22d0  -0.13192 0.01740
            17  2u220d   0.68522 0.46953
 
      Natural orbitals and occupation numbers for root  1
      sym 1:   1.997301   1.960930   1.964393   1.998621   0.048585   0.030170
 
      Natural orbitals and occupation numbers for root  2
      sym 1:   1.998911   1.986331   1.961214   1.000000   0.999145   0.054399
 
      Natural orbitals and occupation numbers for root  3
      sym 1:   1.998793   1.939791   1.971768   1.000000   0.097441   0.992207
 
      Natural orbitals and occupation numbers for root  4
      sym 1:   1.977015   1.592564   1.354189   1.983485   0.457999   0.634749
 
      Natural orbitals and occupation numbers for root  5
      sym 1:   1.992372   1.506926   1.408677   1.997379   0.595693   0.498953
 
      Natural orbitals and occupation numbers for root  6
      sym 1:   1.990624   1.501275   1.482162   1.998446   0.525752   0.501741
 
      ************************************************************************************************************************
      *                                                                                                                      *
      *                                                    Final results                                                     *
      *                                                                                                                      *
      ************************************************************************************************************************
 
 
++    Wave function specifications:
      -----------------------------
 
      Number of closed shell electrons          10
      Number of electrons in active shells       8
      Max number of holes in RAS1 space          0
      Max nr of electrons in RAS3 space          0
      Number of inactive orbitals                5
      Number of active orbitals                  6
      Number of secondary orbitals              17
      Spin quantum number                      0.0
      State symmetry                             1
--
 
++    Orbital specifications:
      -----------------------
 
      Symmetry species                           1
                                                 a
      Frozen orbitals                            0
      Inactive orbitals                          5
      Active orbitals                            6
      RAS1 orbitals                              0
      RAS2 orbitals                              6
      RAS3 orbitals                              0
      Secondary orbitals                        17
      Deleted orbitals                           0
      Number of basis functions                 28
--
 
++    CI expansion specifications:
      ----------------------------
 
      Number of CSFs                           105
      Number of determinants                   120
      Number of root(s) required                 6
      CI roots used                              1     2     3     4     5     6
      weights                                0.167 0.167 0.167 0.167 0.167 0.167
      highest root included in the CI            6
      Root passed to geometry opt.               6
--
 
++    Final optimization conditions:
      ------------------------------
 
      Average CI energy                            -398.44322070
      RASSCF energy for state  6                   -398.28246877
      Super-CI energy                                -0.00000000
      RASSCF energy change                           -0.00000000
      Max change in MO coefficients              -0.296E-04
      Max non-diagonal density matrix element    -0.146E-04
      Maximum BLB matrix element                  0.761E-06
      (orbital pair  10,  13 in symmetry   1)
      Norm of electronic gradient            0.934E-01
--
 
 
      Final state energy(ies):
      ------------------------
 
::    RASSCF root number  1 Total energy:   -398.69129351
::    RASSCF root number  2 Total energy:   -398.50833284
::    RASSCF root number  3 Total energy:   -398.47875151
::    RASSCF root number  4 Total energy:   -398.35221889
::    RASSCF root number  5 Total energy:   -398.34625868
::    RASSCF root number  6 Total energy:   -398.28246877
      Von Neumann Entropy (Root   1) =  0.27787
 

      Mulliken population analysis for root number:  1
      -----------------------------------------------
 
 
++    Molecular charges:
      ------------------
 
      Mulliken charges per centre
      ---------------------------
 
                S1      H2      H3    
      Total   16.1054  0.9472  0.9474
 
      N-E     -0.1054  0.0528  0.0526
 
      Total electronic charge=   18.000000
 
      Total            charge=   -0.000000
--
 
 

      Expectation values of various properties for root number:  1
      -----------------------------------------------------------
 
 
++    Molecular properties:
      ---------------------
 
      Charge (e):
                      =   -0.0000
      Dipole Moment (Debye):
      Origin of the operator (Ang)=    0.0000    0.0000    0.0000
                   X= -3.8657E-02               Y=  3.2814E-03               Z=  9.1790E-01           Total=  9.1872E-01
      Quadrupole Moment (Debye*Ang):
      Origin of the operator (Ang)=   -0.0030    0.0000    0.0709
                  XX= -1.6696E+01              XY=  1.7551E-01              XZ= -1.5458E-01              YY= -1.3284E+01
                  YZ=  6.1144E-03              ZZ= -1.3049E+01
      In traceless form (Debye*Ang)
                  XX= -3.5288E+00              XY=  2.6327E-01              XZ= -2.3187E-01              YY=  1.5881E+00
                  YZ=  9.1715E-03              ZZ=  1.9407E+00
--
 
      Von Neumann Entropy (Root   2) =  1.17995
 

      Mulliken population analysis for root number:  2
      -----------------------------------------------
 
 
++    Molecular charges:
      ------------------
 
      Mulliken charges per centre
      ---------------------------
 
                S1      H2      H3    
      Total   15.9289  1.0304  1.0407
 
      N-E      0.0711 -0.0304 -0.0407
 
      Total electronic charge=   18.000000
 
      Total            charge=   -0.000000
--
 
 

      Expectation values of various properties for root number:  2
      -----------------------------------------------------------
 
 
++    Molecular properties:
      ---------------------
 
      Charge (e):
                      =   -0.0000
      Dipole Moment (Debye):
      Origin of the operator (Ang)=    0.0000    0.0000    0.0000
                   X=  3.5197E-03               Y=  5.2947E-02               Z= -1.9006E-02           Total=  5.6365E-02
      Quadrupole Moment (Debye*Ang):
      Origin of the operator (Ang)=   -0.0030    0.0000    0.0709
                  XX= -1.4024E+01              XY= -1.5172E-01              XZ=  1.0805E-01              YY= -1.6864E+01
                  YZ=  1.2822E-01              ZZ= -1.6411E+01
      In traceless form (Debye*Ang)
                  XX=  2.6133E+00              XY= -2.2758E-01              XZ=  1.6208E-01              YY= -1.6464E+00
                  YZ=  1.9233E-01              ZZ= -9.6683E-01
--
 
      Von Neumann Entropy (Root   3) =  1.27795
 

      Mulliken population analysis for root number:  3
      -----------------------------------------------
 
 
++    Molecular charges:
      ------------------
 
      Mulliken charges per centre
      ---------------------------
 
                S1      H2      H3    
      Total   15.8174  1.0973  1.0853
 
      N-E      0.1826 -0.0973 -0.0853
 
      Total electronic charge=   18.000000
 
      Total            charge=   -0.000000
--
 
 

      Expectation values of various properties for root number:  3
      -----------------------------------------------------------
 
 
++    Molecular properties:
      ---------------------
 
      Charge (e):
                      =   -0.0000
      Dipole Moment (Debye):
      Origin of the operator (Ang)=    0.0000    0.0000    0.0000
                   X=  4.7360E-02               Y= -5.5652E-02               Z= -1.1872E+00           Total=  1.1894E+00
      Quadrupole Moment (Debye*Ang):
      Origin of the operator (Ang)=   -0.0030    0.0000    0.0709
                  XX= -1.4473E+01              XY= -1.2015E-01              XZ=  1.7700E-01              YY= -1.6924E+01
                  YZ= -1.4871E-01              ZZ= -1.8824E+01
      In traceless form (Debye*Ang)
                  XX=  3.4013E+00              XY= -1.8022E-01              XZ=  2.6549E-01              YY= -2.7581E-01
                  YZ= -2.2306E-01              ZZ= -3.1255E+00
--
 
      Von Neumann Entropy (Root   4) =  1.68344
 

      Mulliken population analysis for root number:  4
      -----------------------------------------------
 
 
++    Molecular charges:
      ------------------
 
      Mulliken charges per centre
      ---------------------------
 
                S1      H2      H3    
      Total   16.0063  0.9706  1.0231
 
      N-E     -0.0063  0.0294 -0.0231
 
      Total electronic charge=   18.000000
 
      Total            charge=   -0.000000
--
 
 

      Expectation values of various properties for root number:  4
      -----------------------------------------------------------
 
 
++    Molecular properties:
      ---------------------
 
      Charge (e):
                      =   -0.0000
      Dipole Moment (Debye):
      Origin of the operator (Ang)=    0.0000    0.0000    0.0000
                   X=  2.6558E-02               Y=  2.1411E-01               Z= -3.6824E-01           Total=  4.2679E-01
      Quadrupole Moment (Debye*Ang):
      Origin of the operator (Ang)=   -0.0030    0.0000    0.0709
                  XX= -1.7067E+01              XY=  4.7484E-02              XZ= -1.6633E-02              YY= -1.5652E+01
                  YZ=  5.9683E-01              ZZ= -1.5953E+01
      In traceless form (Debye*Ang)
                  XX= -1.2643E+00              XY=  7.1225E-02              XZ= -2.4950E-02              YY=  8.5784E-01
                  YZ=  8.9524E-01              ZZ=  4.0646E-01
--
 
      Von Neumann Entropy (Root   5) =  1.69140
 

      Mulliken population analysis for root number:  5
      -----------------------------------------------
 
 
++    Molecular charges:
      ------------------
 
      Mulliken charges per centre
      ---------------------------
 
                S1      H2      H3    
      Total   16.0421  1.0058  0.9522
 
      N-E     -0.0421 -0.0058  0.0478
 
      Total electronic charge=   18.000000
 
      Total            charge=   -0.000000
--
 
 

      Expectation values of various properties for root number:  5
      -----------------------------------------------------------
 
 
++    Molecular properties:
      ---------------------
 
      Charge (e):
                      =   -0.0000
      Dipole Moment (Debye):
      Origin of the operator (Ang)=    0.0000    0.0000    0.0000
                   X= -1.0852E-02               Y= -2.1719E-01               Z= -6.8136E-03           Total=  2.1757E-01
      Quadrupole Moment (Debye*Ang):
      Origin of the operator (Ang)=   -0.0030    0.0000    0.0709
                  XX= -1.7099E+01              XY=  1.1527E-01              XZ= -8.0552E-02              YY= -1.5354E+01
                  YZ= -5.9823E-01              ZZ= -1.5929E+01
      In traceless form (Debye*Ang)
                  XX= -1.4571E+00              XY=  1.7290E-01              XZ= -1.2083E-01              YY=  1.1598E+00
                  YZ= -8.9734E-01              ZZ=  2.9734E-01
--
 
      Von Neumann Entropy (Root   6) =  1.64605
 

      Mulliken population analysis for root number:  6
      -----------------------------------------------
 
 
++    Molecular charges:
      ------------------
 
      Mulliken charges per centre
      ---------------------------
 
                S1      H2      H3    
      Total   16.0067  0.9960  0.9972
 
      N-E     -0.0067  0.0040  0.0028
 
      Total electronic charge=   18.000000
 
      Total            charge=   -0.000000
--
 
 

      Expectation values of various properties for root number:  6
      -----------------------------------------------------------
 
 
++    Molecular properties:
      ---------------------
 
      Charge (e):
                      =   -0.0000
      Dipole Moment (Debye):
      Origin of the operator (Ang)=    0.0000    0.0000    0.0000
                   X= -1.5339E-02               Y=  5.8297E-03               Z=  3.6970E-01           Total=  3.7007E-01
      Quadrupole Moment (Debye*Ang):
      Origin of the operator (Ang)=   -0.0030    0.0000    0.0709
                  XX= -1.7062E+01              XY=  9.2056E-02              XZ= -5.3730E-02              YY= -1.5250E+01
                  YZ=  2.9701E-02              ZZ= -1.5762E+01
      In traceless form (Debye*Ang)
                  XX= -1.5558E+00              XY=  1.3808E-01              XZ= -8.0595E-02              YY=  1.1626E+00
                  YZ=  4.4552E-02              ZZ=  3.9319E-01
--
 
 
      Input file to MOLDEN was generated!
 
 
      Input file to MOLDEN was generated!
 
 
      Input file to MOLDEN was generated!
 
 
      Input file to MOLDEN was generated!
 
 
      Input file to MOLDEN was generated!
 
 
      Input file to MOLDEN was generated!
 
 
      Input file to MOLDEN was generated!
 
      Average orbitals are written to the RASORB file
      Natural orbitals for root   1 are written to the RASORB.1 file
      Natural orbitals for root   2 are written to the RASORB.2 file
      Natural orbitals for root   3 are written to the RASORB.3 file
      Natural orbitals for root   4 are written to the RASORB.4 file
      Natural orbitals for root   5 are written to the RASORB.5 file
      Natural orbitals for root   6 are written to the RASORB.6 file
      Spin density orbitals for root   1 are written to the SPDORB.1 file
      Spin density orbitals for root   2 are written to the SPDORB.2 file
      Spin density orbitals for root   3 are written to the SPDORB.3 file
      Spin density orbitals for root   4 are written to the SPDORB.4 file
      Spin density orbitals for root   5 are written to the SPDORB.5 file
      Spin density orbitals for root   6 are written to the SPDORB.6 file
 
--- Stop Module: rasscf at Fri Mar 22 17:06:28 2024 /rc=_RC_ALL_IS_WELL_ ---
--- Module rasscf spent 3 seconds ---

*** symbolic link created: INPORB -> MOLCAS.RasOrb
--- Start Module: caspt2 at Fri Mar 22 17:06:28 2024 ---
 
()()()()()()()()()()()()()()()()()()()()()()()()()()()()()()()()()()()()()()()()()()()()()()()()()()

                                              &CASPT2

                                   only a single process is used
                       available to each process: 10 GB of memory, 1 thread?
                                            pid: 2145988
()()()()()()()()()()()()()()()()()()()()()()()()()()()()()()()()()()()()()()()()()()()()()()()()()()
 
 
++    Wave function specifications:
      -----------------------------
 
      Number of closed shell electrons           0
      Number of electrons in active shells       8
      Max number of holes in RAS1 space          0
      Max number of electrons in RAS3 space      0
      Number of inactive orbitals                0
      Number of active orbitals                  6
      Number of secondary orbitals              17
      Spin quantum number                      0.0
      State symmetry                             1
      Number of CSFs                           105
      Number of CASSCF root(s) available         6
      CASPT2 state passed to geometry opt.       6
      A file JOBMIX will be created
      This is a MULTI-STATE CASSCF reference
      Number of CI roots used                    6
      These are:                                 1   2   3   4   5   6
      Heff is assumed diagonal
--
 
++    Orbital specifications:
      -----------------------
 
      Symmetry species                           1
                                                 a
      Frozen orbitals                            5
      Inactive orbitals                          0
      Active orbitals                            6
      Secondary orbitals                        17
      Deleted orbitals                           0
      Number of basis functions                 28
--
 
++    CASPT2 specifications:
      ----------------------
 
      Type of calculation                        SS-CASPT2
      Fock operator                              state-specific
      IPEA shift                                 0.25
      Real shift                                 0.00
      Imaginary shift                            0.00
      The input orbitals will be transformed to quasi-canonical
--
 
--------------------------------------------------------------------------------
 Estimated memory requirements:
  POLY3 :                   257654
  RHS:                      259460
  SIGMA :                   264688
  PRPCTL:                        0
 Available workspace:   1124990458
 
++ CASPT2 computation for group   1
 
********************************************************************************
 Multi-State initialization phase begins for group   1
--------------------------------------------------------------------------------
********************************************************************************
 Compute H0 matrices for state    1
--------------------------------------------------------------------------------
--------------------------------------------------------------------------------
 H0 matrices have been computed.
 
********************************************************************************
  CASPT2 EQUATION SOLUTION
--------------------------------------------------------------------------------
 
  Total nr of CASPT2 parameters:
   Before reduction:        8925
   After  reduction:        8466
 
 Variance of |WF0>:       0.3238086669
 
 The contributions to the second order correlation energy in atomic units.
-----------------------------------------------------------------------------------------------------------------------------
  IT.      VJTU        VJTI        ATVX        AIVX        VJAI        BVAT        BJAT        BJAI        TOTAL       RNORM  
-----------------------------------------------------------------------------------------------------------------------------
   1     0.000000    0.000000   -0.042945    0.000000    0.000000   -0.083444    0.000000    0.000000   -0.126389    0.000549
   2     0.000000    0.000000   -0.043001    0.000000    0.000000   -0.083444    0.000000    0.000000   -0.126445    0.000019
-----------------------------------------------------------------------------------------------------------------------------
 
  FINAL CASPT2 RESULT:
 
      Reference energy:        -398.6912935097
      E2 (Non-variational):      -0.1264458892
      E2 (Variational):          -0.1264458542
      Total energy:            -398.8177393640
      Residual norm:              0.0000006600
      Reference weight:           0.95014
 
      Contributions to the CASPT2 correlation energy
      Active & Virtual Only:         -0.1264458892
      One Inactive Excited:           0.0000000000
      Two Inactive Excited:           0.0000000000
 
 
++ Denominators, etc.
--------------------------------------------------------------------------------------------------------------
 Report on small energy denominators, large coefficients, and large energy contributions.
CASE  SYMM ACTIVE-MIX  NON-ACTIVE INDICES          DENOMINATOR     RHS VALUE       COEFFICIENT     CONTRIBUTION
ATVX     1  Mu1.0019  Se1.013                       1.70067677     -0.06771530      0.03871919     -0.00262188
ATVX     1  Mu1.0013  Se1.015                       1.69742139     -0.05044280      0.02848125     -0.00143667
ATVX     1  Mu1.0016  Se1.016                       1.82975567     -0.06340178      0.03443921     -0.00218351
ATVX     1  Mu1.0026  Se1.018                       2.22901623     -0.05894205      0.02601017     -0.00153309
ATVX     1  Mu1.0007  Se1.019                       1.75159887     -0.04577814      0.02596411     -0.00118859
ATVX     1  Mu1.0009  Se1.019                       1.76529630      0.05369582     -0.03031143     -0.00162760
ATVX     1  Mu1.0024  Se1.019                       2.21290755      0.05847581     -0.02609815     -0.00152611
BVATP    1  Mu1.0005  Se1.013 Se1.012               2.05292165      0.05255482     -0.02511764     -0.00132005
BVATP    1  Mu1.0001  Se1.015 Se1.015               2.15248727     -0.07371544      0.03415437     -0.00251770
BVATP    1  Mu1.0006  Se1.016 Se1.016               2.47368243     -0.06886975      0.02782889     -0.00191657
BVATP    1  Mu1.0001  Se1.018 Se1.018               2.33288774     -0.07502777      0.03215832     -0.00241277
BVATP    1  Mu1.0001  Se1.019 Se1.019               2.35686851     -0.07593758      0.03221969     -0.00244669
BVATM    1  Mu1.0001  Se1.015 Se1.014               2.22130922     -0.06329265      0.02778270     -0.00175844
BVATM    1  Mu1.0001  Se1.018 Se1.013               2.21374626      0.08115992     -0.03609680     -0.00292961
BVATM    1  Mu1.0002  Se1.019 Se1.013               2.23329203      0.06283767     -0.02778482     -0.00174593
BVATM    1  Mu1.0002  Se1.019 Se1.016               2.40482760      0.06818393     -0.02828377     -0.00192850
BVATM    1  Mu1.0002  Se1.020 Se1.019               2.46541161     -0.06227485      0.02561129     -0.00159494
--
 
   (Skipping property calculation,
    use PROP keyword to activate)
--
 
++ CASPT2 computation for group   2
 
********************************************************************************
 Multi-State initialization phase begins for group   2
--------------------------------------------------------------------------------
********************************************************************************
 Compute H0 matrices for state    2
--------------------------------------------------------------------------------
--------------------------------------------------------------------------------
 H0 matrices have been computed.
 
********************************************************************************
  CASPT2 EQUATION SOLUTION
--------------------------------------------------------------------------------
 
  Total nr of CASPT2 parameters:
   Before reduction:        8925
   After  reduction:        7820
 
 Variance of |WF0>:       0.3227960093
 
 The contributions to the second order correlation energy in atomic units.
-----------------------------------------------------------------------------------------------------------------------------
  IT.      VJTU        VJTI        ATVX        AIVX        VJAI        BVAT        BJAT        BJAI        TOTAL       RNORM  
-----------------------------------------------------------------------------------------------------------------------------
   1     0.000000    0.000000   -0.051732    0.000000    0.000000   -0.078704    0.000000    0.000000   -0.130436    0.000505
   2     0.000000    0.000000   -0.051783    0.000000    0.000000   -0.078707    0.000000    0.000000   -0.130491    0.000020
-----------------------------------------------------------------------------------------------------------------------------
 
  FINAL CASPT2 RESULT:
 
      Reference energy:        -398.5083328365
      E2 (Non-variational):      -0.1304917904
      E2 (Variational):          -0.1304917442
      Total energy:            -398.6388245807
      Residual norm:              0.0000006977
      Reference weight:           0.94550
 
      Contributions to the CASPT2 correlation energy
      Active & Virtual Only:         -0.1304917904
      One Inactive Excited:           0.0000000000
      Two Inactive Excited:           0.0000000000
 
 
++ Denominators, etc.
--------------------------------------------------------------------------------------------------------------
 Report on small energy denominators, large coefficients, and large energy contributions.
CASE  SYMM ACTIVE-MIX  NON-ACTIVE INDICES          DENOMINATOR     RHS VALUE       COEFFICIENT     CONTRIBUTION
ATVX     1  Mu1.0026  Se1.013                       1.63646748      0.08057250     -0.04910426     -0.00395645
ATVX     1  Mu1.0027  Se1.016                       1.80809450     -0.06468867      0.03587459     -0.00232068
ATVX     1  Mu1.0046  Se1.018                       2.18635487     -0.05886238      0.02681826     -0.00157859
ATVX     1  Mu1.0048  Se1.019                       2.23641091     -0.06114801      0.02724781     -0.00166615
ATVX     1  Mu1.0008  Se1.020                       1.35995083     -0.04497602      0.03283732     -0.00147689
ATVX     1  Mu1.0009  Se1.021                       1.67004330      0.07893954     -0.04700848     -0.00371083
ATVX     1  Mu1.0008  Se1.022                       1.67396012     -0.06633232      0.03932232     -0.00260834
BVATP    1  Mu1.0008  Se1.016 Se1.016               2.50581737      0.07128210     -0.02841084     -0.00202518
BVATM    1  Mu1.0005  Se1.016 Se1.012               2.26573172     -0.05942792      0.02609678     -0.00155088
BVATM    1  Mu1.0003  Se1.018 Se1.013               2.18894500      0.06557454     -0.02961460     -0.00194196
--
 
   (Skipping property calculation,
    use PROP keyword to activate)
--
 
++ CASPT2 computation for group   3
 
********************************************************************************
 Multi-State initialization phase begins for group   3
--------------------------------------------------------------------------------
********************************************************************************
 Compute H0 matrices for state    3
--------------------------------------------------------------------------------
--------------------------------------------------------------------------------
 H0 matrices have been computed.
 
********************************************************************************
  CASPT2 EQUATION SOLUTION
--------------------------------------------------------------------------------
 
  Total nr of CASPT2 parameters:
   Before reduction:        8925
   After  reduction:        7820
 
 Variance of |WF0>:       0.3171449586
 
 The contributions to the second order correlation energy in atomic units.
-----------------------------------------------------------------------------------------------------------------------------
  IT.      VJTU        VJTI        ATVX        AIVX        VJAI        BVAT        BJAT        BJAI        TOTAL       RNORM  
-----------------------------------------------------------------------------------------------------------------------------
   1     0.000000    0.000000   -0.052524    0.000000    0.000000   -0.078921    0.000000    0.000000   -0.131445    0.000645
   2     0.000000    0.000000   -0.052585    0.000000    0.000000   -0.078941    0.000000    0.000000   -0.131526    0.000023
-----------------------------------------------------------------------------------------------------------------------------
 
  FINAL CASPT2 RESULT:
 
      Reference energy:        -398.4787515134
      E2 (Non-variational):      -0.1315273423
      E2 (Variational):          -0.1315272901
      Total energy:            -398.6102788035
      Residual norm:              0.0000008373
      Reference weight:           0.94164
 
      Contributions to the CASPT2 correlation energy
      Active & Virtual Only:         -0.1315273423
      One Inactive Excited:           0.0000000000
      Two Inactive Excited:           0.0000000000
 
 
++ Denominators, etc.
--------------------------------------------------------------------------------------------------------------
 Report on small energy denominators, large coefficients, and large energy contributions.
CASE  SYMM ACTIVE-MIX  NON-ACTIVE INDICES          DENOMINATOR     RHS VALUE       COEFFICIENT     CONTRIBUTION
ATVX     1  Mu1.0001  Se1.013                       0.55855143     -0.03301792      0.05834401     -0.00192640
ATVX     1  Mu1.0027  Se1.013                       1.65464712     -0.06753260      0.04049266     -0.00273457
ATVX     1  Mu1.0038  Se1.013                       1.75716909     -0.04837662      0.02712995     -0.00131246
ATVX     1  Mu1.0001  Se1.014                       0.61825686      0.01635532     -0.02512239     -0.00041088
ATVX     1  Mu1.0030  Se1.016                       1.81704626      0.05858202     -0.03234266     -0.00189470
ATVX     1  Mu1.0034  Se1.017                       1.88167873      0.05531264     -0.02894758     -0.00160117
ATVX     1  Mu1.0002  Se1.018                       0.99513535      0.03089887     -0.02977311     -0.00091996
ATVX     1  Mu1.0051  Se1.018                       2.23437874     -0.06174173      0.02754294     -0.00170055
ATVX     1  Mu1.0048  Se1.019                       2.18974647      0.06624967     -0.03013040     -0.00199613
ATVX     1  Mu1.0027  Se1.020                       1.85886411     -0.06612613      0.03545327     -0.00234439
ATVX     1  Mu1.0009  Se1.022                       1.69060039     -0.05344659      0.03116823     -0.00166584
BVATP    1  Mu1.0008  Se1.014 Se1.014               2.29886430     -0.05913610      0.02549120     -0.00150745
BVATP    1  Mu1.0008  Se1.018 Se1.018               2.52905543     -0.06516511      0.02582752     -0.00168305
BVATM    1  Mu1.0005  Se1.016 Se1.012               2.23420961      0.06320192     -0.02793844     -0.00176576
BVATM    1  Mu1.0004  Se1.018 Se1.013               2.20065494     -0.06679292      0.02983665     -0.00199288
BVATM    1  Mu1.0003  Se1.019 Se1.016               2.33270295      0.05873776     -0.02513992     -0.00147666
--
 
   (Skipping property calculation,
    use PROP keyword to activate)
--
 
++ CASPT2 computation for group   4
 
********************************************************************************
 Multi-State initialization phase begins for group   4
--------------------------------------------------------------------------------
********************************************************************************
 Compute H0 matrices for state    4
--------------------------------------------------------------------------------
--------------------------------------------------------------------------------
 H0 matrices have been computed.
 
********************************************************************************
  CASPT2 EQUATION SOLUTION
--------------------------------------------------------------------------------
 
  Total nr of CASPT2 parameters:
   Before reduction:        8925
   After  reduction:        8466
 
 Variance of |WF0>:       0.3157061039
 
 The contributions to the second order correlation energy in atomic units.
-----------------------------------------------------------------------------------------------------------------------------
  IT.      VJTU        VJTI        ATVX        AIVX        VJAI        BVAT        BJAT        BJAI        TOTAL       RNORM  
-----------------------------------------------------------------------------------------------------------------------------
   1     0.000000    0.000000   -0.049258    0.000000    0.000000   -0.086386    0.000000    0.000000   -0.135644    0.000579
   2     0.000000    0.000000   -0.049306    0.000000    0.000000   -0.086413    0.000000    0.000000   -0.135719    0.000020
-----------------------------------------------------------------------------------------------------------------------------
 
  FINAL CASPT2 RESULT:
 
      Reference energy:        -398.3522188927
      E2 (Non-variational):      -0.1357196092
      E2 (Variational):          -0.1357195548
      Total energy:            -398.4879384475
      Residual norm:              0.0000007203
      Reference weight:           0.93856
 
      Contributions to the CASPT2 correlation energy
      Active & Virtual Only:         -0.1357196092
      One Inactive Excited:           0.0000000000
      Two Inactive Excited:           0.0000000000
 
 
++ Denominators, etc.
--------------------------------------------------------------------------------------------------------------
 Report on small energy denominators, large coefficients, and large energy contributions.
CASE  SYMM ACTIVE-MIX  NON-ACTIVE INDICES          DENOMINATOR     RHS VALUE       COEFFICIENT     CONTRIBUTION
ATVX     1  Mu1.0015  Se1.013                       1.07176089     -0.03059481      0.02837038     -0.00086799
ATVX     1  Mu1.0020  Se1.013                       1.12412992      0.03084420     -0.02680102     -0.00082666
ATVX     1  Mu1.0022  Se1.013                       1.15110645     -0.02991300      0.02565114     -0.00076730
ATVX     1  Mu1.0013  Se1.016                       1.19615393     -0.03098341      0.02560901     -0.00079345
ATVX     1  Mu1.0003  Se1.017                       0.69319106      0.01892311     -0.02652988     -0.00050203
ATVX     1  Mu1.0019  Se1.018                       1.30962259     -0.04836629      0.03697200     -0.00178820
ATVX     1  Mu1.0052  Se1.018                       1.97552610      0.05162106     -0.02603033     -0.00134371
ATVX     1  Mu1.0041  Se1.019                       1.82918495      0.06071986     -0.03317231     -0.00201422
ATVX     1  Mu1.0020  Se1.021                       1.60502174      0.04174310     -0.02584111     -0.00107869
ATVX     1  Mu1.0022  Se1.021                       1.63199827      0.05569036     -0.03382811     -0.00188390
BVATP    1  Mu1.0006  Se1.015 Se1.015               2.15464636     -0.07351406      0.03411988     -0.00250829
BVATP    1  Mu1.0006  Se1.018 Se1.018               2.31594779     -0.07565604      0.03266170     -0.00247106
BVATP    1  Mu1.0006  Se1.019 Se1.019               2.34435201     -0.07504664      0.03201025     -0.00240226
--
 
   (Skipping property calculation,
    use PROP keyword to activate)
--
 
++ CASPT2 computation for group   5
 
********************************************************************************
 Multi-State initialization phase begins for group   5
--------------------------------------------------------------------------------
********************************************************************************
 Compute H0 matrices for state    5
--------------------------------------------------------------------------------
--------------------------------------------------------------------------------
 H0 matrices have been computed.
 
********************************************************************************
  CASPT2 EQUATION SOLUTION
--------------------------------------------------------------------------------
 
  Total nr of CASPT2 parameters:
   Before reduction:        8925
   After  reduction:        8466
 
 Variance of |WF0>:       0.3227175547
 
 The contributions to the second order correlation energy in atomic units.
-----------------------------------------------------------------------------------------------------------------------------
  IT.      VJTU        VJTI        ATVX        AIVX        VJAI        BVAT        BJAT        BJAI        TOTAL       RNORM  
-----------------------------------------------------------------------------------------------------------------------------
   1     0.000000    0.000000   -0.059303    0.000000    0.000000   -0.083097    0.000000    0.000000   -0.142400    0.000572
   2     0.000000    0.000000   -0.059364    0.000000    0.000000   -0.083115    0.000000    0.000000   -0.142479    0.000023
-----------------------------------------------------------------------------------------------------------------------------
 
  FINAL CASPT2 RESULT:
 
      Reference energy:        -398.3462586810
      E2 (Non-variational):      -0.1424803056
      E2 (Variational):          -0.1424802373
      Total energy:            -398.4887389183
      Residual norm:              0.0000008288
      Reference weight:           0.93161
 
      Contributions to the CASPT2 correlation energy
      Active & Virtual Only:         -0.1424803056
      One Inactive Excited:           0.0000000000
      Two Inactive Excited:           0.0000000000
 
 
++ Denominators, etc.
--------------------------------------------------------------------------------------------------------------
 Report on small energy denominators, large coefficients, and large energy contributions.
CASE  SYMM ACTIVE-MIX  NON-ACTIVE INDICES          DENOMINATOR     RHS VALUE       COEFFICIENT     CONTRIBUTION
ATVX     1  Mu1.0010  Se1.013                       1.01743359     -0.04122793      0.04012066     -0.00165409
ATVX     1  Mu1.0021  Se1.013                       1.12620856      0.04425850     -0.03890704     -0.00172197
ATVX     1  Mu1.0002  Se1.016                       0.65549738      0.02222470     -0.03370565     -0.00074910
ATVX     1  Mu1.0003  Se1.016                       0.67163046      0.03349262     -0.04970833     -0.00166486
ATVX     1  Mu1.0028  Se1.016                       1.67098531      0.05350727     -0.03196205     -0.00171020
ATVX     1  Mu1.0041  Se1.016                       1.78116681     -0.09044821      0.05061997     -0.00457849
ATVX     1  Mu1.0001  Se1.019                       0.70361823     -0.03285944      0.04659264     -0.00153101
ATVX     1  Mu1.0051  Se1.019                       1.95757601      0.04938052     -0.02517150     -0.00124298
BVATP    1  Mu1.0006  Se1.015 Se1.015               2.16178065     -0.07394260      0.03420468     -0.00252918
BVATP    1  Mu1.0006  Se1.018 Se1.018               2.32336792     -0.07664475      0.03298014     -0.00252775
BVATP    1  Mu1.0006  Se1.019 Se1.019               2.35104482     -0.07596473      0.03231083     -0.00245448
BVATM    1  Mu1.0005  Se1.018 Se1.013               2.21547363     -0.05727805      0.02567193     -0.00147044
--
 
   (Skipping property calculation,
    use PROP keyword to activate)
--
 
++ CASPT2 computation for group   6
 
********************************************************************************
 Multi-State initialization phase begins for group   6
--------------------------------------------------------------------------------
********************************************************************************
 Compute H0 matrices for state    6
--------------------------------------------------------------------------------
--------------------------------------------------------------------------------
 H0 matrices have been computed.
 
********************************************************************************
  CASPT2 EQUATION SOLUTION
--------------------------------------------------------------------------------
 
  Total nr of CASPT2 parameters:
   Before reduction:        8925
   After  reduction:        8466
 
 Variance of |WF0>:       0.3512627676
 
 The contributions to the second order correlation energy in atomic units.
-----------------------------------------------------------------------------------------------------------------------------
  IT.      VJTU        VJTI        ATVX        AIVX        VJAI        BVAT        BJAT        BJAI        TOTAL       RNORM  
-----------------------------------------------------------------------------------------------------------------------------
   1     0.000000    0.000000   -0.071747    0.000000    0.000000   -0.088734    0.000000    0.000000   -0.160481    0.000524
   2     0.000000    0.000000   -0.071809    0.000000    0.000000   -0.088760    0.000000    0.000000   -0.160570    0.000014
-----------------------------------------------------------------------------------------------------------------------------
 
  FINAL CASPT2 RESULT:
 
      Reference energy:        -398.2824687735
      E2 (Non-variational):      -0.1605698568
      E2 (Variational):          -0.1605698079
      Total energy:            -398.4430385814
      Residual norm:              0.0000004985
      Reference weight:           0.91342
 
      Contributions to the CASPT2 correlation energy
      Active & Virtual Only:         -0.1605698568
      One Inactive Excited:           0.0000000000
      Two Inactive Excited:           0.0000000000
 
 
++ Denominators, etc.
--------------------------------------------------------------------------------------------------------------
 Report on small energy denominators, large coefficients, and large energy contributions.
CASE  SYMM ACTIVE-MIX  NON-ACTIVE INDICES          DENOMINATOR     RHS VALUE       COEFFICIENT     CONTRIBUTION
ATVX     1  Mu1.0002  Se1.012                       0.46498576     -0.03946406      0.08490043     -0.00335052
ATVX     1  Mu1.0006  Se1.012                       0.95551342     -0.02864174      0.03142071     -0.00089994
ATVX     1  Mu1.0012  Se1.012                       1.00858260     -0.03139109      0.03130877     -0.00098282
ATVX     1  Mu1.0003  Se1.013                       0.53750532     -0.05021341      0.09292823     -0.00466624
ATVX     1  Mu1.0003  Se1.016                       0.69914514     -0.05281351      0.07625586     -0.00402734
ATVX     1  Mu1.0030  Se1.016                       1.70366892     -0.06903507      0.04043377     -0.00279135
ATVX     1  Mu1.0049  Se1.016                       1.90984159     -0.06591845      0.03438038     -0.00226630
ATVX     1  Mu1.0002  Se1.017                       0.70670752     -0.02888857      0.04023591     -0.00116236
ATVX     1  Mu1.0001  Se1.019                       0.73751242      0.04843296     -0.06615068     -0.00320387
ATVX     1  Mu1.0025  Se1.019                       1.70145765      0.06723572     -0.03945525     -0.00265280
ATVX     1  Mu1.0010  Se1.021                       1.54623588     -0.04304100      0.02718955     -0.00117027
BVATP    1  Mu1.0006  Se1.015 Se1.015               2.16020295     -0.07400778      0.03425902     -0.00253543
BVATP    1  Mu1.0006  Se1.018 Se1.018               2.32046803     -0.07567326      0.03257700     -0.00246521
BVATP    1  Mu1.0006  Se1.019 Se1.019               2.34641944     -0.07661633      0.03265244     -0.00250171
BVATM    1  Mu1.0004  Se1.018 Se1.013               2.21756248      0.07373085     -0.03299229     -0.00243255
BVATM    1  Mu1.0005  Se1.019 Se1.016               2.39981508      0.06358855     -0.02644775     -0.00168177
--
 
   (Skipping property calculation,
    use PROP keyword to activate)
--
 
  Total CASPT2 energies:
::    CASPT2 Root  1     Total energy:   -398.81773936
::    CASPT2 Root  2     Total energy:   -398.63882458
::    CASPT2 Root  3     Total energy:   -398.61027880
::    CASPT2 Root  4     Total energy:   -398.48793845
::    CASPT2 Root  5     Total energy:   -398.48873892
::    CASPT2 Root  6     Total energy:   -398.44303858
 
  A NEW JOBIPH FILE NAMED 'JOBMIX' IS PREPARED.
********************************************************************************
--- Stop Module: caspt2 at Fri Mar 22 17:06:28 2024 /rc=_RC_ALL_IS_WELL_ ---

>>> COPY MOLCAS.JobMix MOLCAS.1.JobIph

*** symbolic link created: INPORB -> MOLCAS.RasOrb
--- Start Module: rasscf at Fri Mar 22 17:06:28 2024 ---
 
()()()()()()()()()()()()()()()()()()()()()()()()()()()()()()()()()()()()()()()()()()()()()()()()()()

                                              &RASSCF

                                   only a single process is used
                       available to each process: 10 GB of memory, 1 thread?
                                            pid: 2145991
()()()()()()()()()()()()()()()()()()()()()()()()()()()()()()()()()()()()()()()()()()()()()()()()()()
 
 
      Header of the ONEINT file:
      --------------------------
      
      Integrals generated by Gateway/Seward, Fri Mar 22 17:06:24 2024
 
 
      OrdInt status: non-squared
 
 
      Cartesian coordinates in Angstrom:
      -----------------------------------------------------
      No.  Label        X            Y            Z        
      -----------------------------------------------------
       1   S1         0.00000000   0.00000000   0.00084100
       2   H2         0.00000000   0.97479900   1.18293400
       3   H3        -0.10000000  -0.97479900   1.18293400
      -----------------------------------------------------
      Nuclear repulsion energy =   11.31134847
 
++    Wave function specifications:
      -----------------------------
 
      Number of closed shell electrons          10
      Number of electrons in active shells       7
      Max number of holes in RAS1 space          0
      Max nr of electrons in RAS3 space          0
      Number of inactive orbitals                5
      Number of active orbitals                  6
      Number of secondary orbitals              17
      Spin quantum number                      0.5
      State symmetry                             1
--
 
++    Orbital specifications:
      -----------------------
 
      Symmetry species                           1
                                                 a
      Frozen orbitals                            0
      Inactive orbitals                          5
      Active orbitals                            6
      RAS1 orbitals                              0
      RAS2 orbitals                              6
      RAS3 orbitals                              0
      Secondary orbitals                        17
      Deleted orbitals                           0
      Number of basis functions                 28
--
 
++    CI expansion specifications:
      ----------------------------
 
      Number of CSFs                           210
      Number of determinants                   300
      Number of root(s) required                 4
      Root chosen for geometry opt.              4
      CI roots used                              1     2     3     4
      weights                                0.250 0.250 0.250 0.250
      highest root included in the CI            4
      max. size of the explicit Hamiltonian    200
--
 
++    Optimization specifications:
      ----------------------------
 
      RASSCF algorithm: LK RI/DF
      Maximum number of macro iterations       200
      Maximum number of SX iterations          100
      Threshold for RASSCF energy            0.100E-07
      Threshold for max MO rotation          0.100E-03
      Threshold for max BLB element          0.100E-03
      Level shift parameter                  0.500E+00
      Make Quasi-Newton update
--
 
      Orbitals from runfile: rasscf orbitals
      The MO-coefficients are taken from rasscf orbitals on runfile
 
      Total molecular charge    1.00
 
      ************************************************************************************************************************
      *                                                                                                                      *
      *                                            Wave function control section                                             *
      *                                                                                                                      *
      ************************************************************************************************************************
 
 
                                         RASSCF iterations: Energy and convergence statistics
                                         ----------------------------------------------------
 
      Iter CI   SX   CI       RASSCF       Energy    max ROT     max BLB   max BLB  Level Ln srch  Step   QN   Walltime
          iter iter root      energy       change     param      element    value   shift minimum  type update hh:mm:ss
 Nr of preliminary CI iterations:   3
        1   1   20    0  -398.19777187    0.00E+00   0.29E+00*   7  12 1 -0.80E-01*  0.00   0.00    SX    NO    0:00:00
        2   3    8    0  -398.22724339   -0.29E-01*  0.70E-01*   7  21 1 -0.13E-01*  0.00   0.00    SX    NO    0:00:00
        3   1    8    0  -398.22888100   -0.16E-02* -0.28E-01*   7  12 1 -0.28E-02*  0.00   0.00    SX    NO    0:00:00
        4   3    8    0  -398.22910668   -0.23E-03*  0.14E-01*   7  21 1 -0.16E-02*  0.00   0.00    SX    NO    0:00:00
        5   3    7    0  -398.22914354   -0.37E-04*  0.89E-02*  10  12 1  0.46E-03*  0.00   1.67    LS   YES    0:00:00
        6   3    7    0  -398.22915047   -0.69E-05* -0.15E-02*   7  21 1  0.41E-03*  0.00   1.02    QN   YES    0:00:00
        7   3    6    0  -398.22915144   -0.96E-06* -0.59E-03*   8  27 1  0.77E-04   0.00   1.41    LS   YES    0:00:00
        8   3    6    0  -398.22915152   -0.87E-07* -0.51E-03*   7  12 1  0.10E-03   0.00   1.00    QN   YES    0:00:00
        9   3    6    0  -398.22915160   -0.80E-07*  0.27E-03*   8  22 1 -0.29E-04   0.00   1.31    QN   YES    0:00:00
       10   3    4    0  -398.22915161   -0.10E-07* -0.40E-04    6  22 1 -0.73E-05   0.00   1.13    QN   YES    0:00:00
       11   1    4    0  -398.22915161   -0.27E-09  -0.10E-04    9  18 1 -0.16E-05   0.00   2.50    QN   YES    0:00:00
      Convergence after 11 iterations
       12   1    4    0  -398.22915161   -0.32E-10  -0.10E-04    6  22 1  0.33E-06   0.00   2.50    QN   YES    0:00:00
 
      ************************************************************************************************************************
                                                      Wave function printout:
                       occupation of active orbitals, and spin coupling of open shells (u,d: Spin up or down)
      ************************************************************************************************************************
 
      Note: transformation to natural orbitals
      has been made, which may change the order of the CSFs.
 
      printout of CI-coefficients larger than  0.10 for root  1
      energy=    -398.367451
      conf/sym  111111     Coeff  Weight
             1  222u00  -0.97361 0.94793
            56  202u20  -0.10763 0.01158
 
      printout of CI-coefficients larger than  0.10 for root  2
      energy=    -398.233506
      conf/sym  111111     Coeff  Weight
             4  22u200  -0.95871 0.91912
            13  2u2200  -0.17060 0.02910
           124  20u220  -0.10709 0.01147
 
      printout of CI-coefficients larger than  0.10 for root  3
      energy=    -398.220559
      conf/sym  111111     Coeff  Weight
             4  22u200   0.16872 0.02847
            13  2u2200  -0.94600 0.89491
            41  2ud20u   0.11686 0.01366
            55  2022u0   0.10610 0.01126
 
      printout of CI-coefficients larger than  0.10 for root  4
      energy=    -398.095090
      conf/sym  111111     Coeff  Weight
             2  2220u0   0.95477 0.91159
            11  22u0ud  -0.12374 0.01531
            16  2u2020  -0.12896 0.01663
 
      Natural orbitals and occupation numbers for root  1
      sym 1:   1.994895   1.949177   1.957993   1.000000   0.059882   0.038052
 
      Natural orbitals and occupation numbers for root  2
      sym 1:   1.979316   1.937847   1.006413   1.998397   0.047642   0.030385
 
      Natural orbitals and occupation numbers for root  3
      sym 1:   1.986200   1.013703   1.932545   1.981439   0.049563   0.036550
 
      Natural orbitals and occupation numbers for root  4
      sym 1:   1.977336   1.971837   1.950848   0.048894   0.992269   0.058817
 
      ************************************************************************************************************************
      *                                                                                                                      *
      *                                                    Final results                                                     *
      *                                                                                                                      *
      ************************************************************************************************************************
 
 
++    Wave function specifications:
      -----------------------------
 
      Number of closed shell electrons          10
      Number of electrons in active shells       7
      Max number of holes in RAS1 space          0
      Max nr of electrons in RAS3 space          0
      Number of inactive orbitals                5
      Number of active orbitals                  6
      Number of secondary orbitals              17
      Spin quantum number                      0.5
      State symmetry                             1
--
 
++    Orbital specifications:
      -----------------------
 
      Symmetry species                           1
                                                 a
      Frozen orbitals                            0
      Inactive orbitals                          5
      Active orbitals                            6
      RAS1 orbitals                              0
      RAS2 orbitals                              6
      RAS3 orbitals                              0
      Secondary orbitals                        17
      Deleted orbitals                           0
      Number of basis functions                 28
--
 
++    CI expansion specifications:
      ----------------------------
 
      Number of CSFs                           210
      Number of determinants                   300
      Number of root(s) required                 4
      CI roots used                              1     2     3     4
      weights                                0.250 0.250 0.250 0.250
      highest root included in the CI            4
      Root passed to geometry opt.               4
--
 
++    Final optimization conditions:
      ------------------------------
 
      Average CI energy                            -398.22915161
      RASSCF energy for state  4                   -398.09509049
      Super-CI energy                                -0.00000000
      RASSCF energy change                            0.00000000
      Max change in MO coefficients               0.243E-04
      Max non-diagonal density matrix element    -0.101E-04
      Maximum BLB matrix element                  0.334E-06
      (orbital pair   6,  22 in symmetry   1)
      Norm of electronic gradient            0.801E-01
--
 
 
      Final state energy(ies):
      ------------------------
 
::    RASSCF root number  1 Total energy:   -398.36745097
::    RASSCF root number  2 Total energy:   -398.23350552
::    RASSCF root number  3 Total energy:   -398.22055947
::    RASSCF root number  4 Total energy:   -398.09509049
      Von Neumann Entropy (Root   1) =  0.83015
 

      Mulliken population analysis for root number:  1
      -----------------------------------------------
 
 
++    Molecular charges:
      ------------------
 
      Mulliken charges per centre
      ---------------------------
 
                S1      H2      H3    
      Total   15.4692  0.7654  0.7654
 
      N-E      0.5308  0.2346  0.2346
 
      Total electronic charge=   17.000000
 
      Total            charge=    1.000000
--
 
 

      Expectation values of various properties for root number:  1
      -----------------------------------------------------------
 
 
++    Molecular properties:
      ---------------------
 
      Charge (e):
                      =    1.0000
      Dipole Moment (Debye):
      Origin of the operator (Ang)=    0.0000    0.0000    0.0000
                   X= -1.0663E-01               Y=  1.3120E-03               Z=  2.5265E+00           Total=  2.5287E+00
      Center of Charge (Ang)
                     X=   -0.02219885               Y=    0.00027316               Z=    0.52599429
      Quadrupole Moment (Debye*Ang):
      Origin of the operator (Ang)=   -0.0030    0.0000    0.0709
                  XX= -1.1664E+01              XY=  1.0714E-01              XZ= -1.2020E-01              YY= -9.5852E+00
                  YZ=  9.8174E-04              ZZ= -8.8320E+00
      In traceless form (Debye*Ang)
                  XX= -2.4557E+00              XY=  1.6071E-01              XZ= -1.8029E-01              YY=  6.6292E-01
                  YZ=  1.4726E-03              ZZ=  1.7927E+00
--
 

      Mulliken spin population analysis for root number:  1
      ---------------------------------------------------
 
 
++    Molecular charges:
      ------------------
 
      Mulliken spin population per centre
      ---------------------------
 
                S1      H2      H3    
      Total    1.1016 -0.0505 -0.0511
 
      Total electronic spin=    1.000000
--
 
 
      Von Neumann Entropy (Root   2) =  0.77890
 

      Mulliken population analysis for root number:  2
      -----------------------------------------------
 
 
++    Molecular charges:
      ------------------
 
      Mulliken charges per centre
      ---------------------------
 
                S1      H2      H3    
      Total   15.6237  0.6899  0.6864
 
      N-E      0.3763  0.3101  0.3136
 
      Total electronic charge=   17.000000
 
      Total            charge=    1.000000
--
 
 

      Expectation values of various properties for root number:  2
      -----------------------------------------------------------
 
 
++    Molecular properties:
      ---------------------
 
      Charge (e):
                      =    1.0000
      Dipole Moment (Debye):
      Origin of the operator (Ang)=    0.0000    0.0000    0.0000
                   X= -1.0660E-01               Y= -9.8025E-03               Z=  2.5124E+00           Total=  2.5147E+00
      Center of Charge (Ang)
                     X=   -0.02219380               Y=   -0.00204082               Z=    0.52306887
      Quadrupole Moment (Debye*Ang):
      Origin of the operator (Ang)=   -0.0030    0.0000    0.0709
                  XX= -1.4179E+01              XY=  2.6746E-01              XZ= -3.3922E-01              YY= -9.0161E+00
                  YZ= -2.8840E-02              ZZ= -6.2220E+00
      In traceless form (Debye*Ang)
                  XX= -6.5596E+00              XY=  4.0120E-01              XZ= -5.0883E-01              YY=  1.1843E+00
                  YZ= -4.3259E-02              ZZ=  5.3754E+00
--
 

      Mulliken spin population analysis for root number:  2
      ---------------------------------------------------
 
 
++    Molecular charges:
      ------------------
 
      Mulliken spin population per centre
      ---------------------------
 
                S1      H2      H3    
      Total    0.6662  0.1612  0.1726
 
      Total electronic spin=    1.000000
--
 
 
      Von Neumann Entropy (Root   3) =  0.80569
 

      Mulliken population analysis for root number:  3
      -----------------------------------------------
 
 
++    Molecular charges:
      ------------------
 
      Mulliken charges per centre
      ---------------------------
 
                S1      H2      H3    
      Total   15.6195  0.6881  0.6924
 
      N-E      0.3805  0.3119  0.3076
 
      Total electronic charge=   17.000000
 
      Total            charge=    1.000000
--
 
 

      Expectation values of various properties for root number:  3
      -----------------------------------------------------------
 
 
++    Molecular properties:
      ---------------------
 
      Charge (e):
                      =    1.0000
      Dipole Moment (Debye):
      Origin of the operator (Ang)=    0.0000    0.0000    0.0000
                   X= -1.4475E-01               Y=  1.2139E-02               Z=  3.4410E+00           Total=  3.4440E+00
      Center of Charge (Ang)
                     X=   -0.03013645               Y=    0.00252720               Z=    0.71638734
      Quadrupole Moment (Debye*Ang):
      Origin of the operator (Ang)=   -0.0030    0.0000    0.0709
                  XX= -1.4259E+01              XY=  3.5702E-01              XZ= -2.5625E-01              YY= -7.2893E+00
                  YZ=  4.6756E-02              ZZ= -8.1734E+00
      In traceless form (Debye*Ang)
                  XX= -6.5278E+00              XY=  5.3553E-01              XZ= -3.8437E-01              YY=  3.9269E+00
                  YZ=  7.0134E-02              ZZ=  2.6008E+00
--
 

      Mulliken spin population analysis for root number:  3
      ---------------------------------------------------
 
 
++    Molecular charges:
      ------------------
 
      Mulliken spin population per centre
      ---------------------------
 
                S1      H2      H3    
      Total    0.4067  0.3013  0.2920
 
      Total electronic spin=    1.000000
--
 
 
      Von Neumann Entropy (Root   4) =  0.85365
 

      Mulliken population analysis for root number:  4
      -----------------------------------------------
 
 
++    Molecular charges:
      ------------------
 
      Mulliken charges per centre
      ---------------------------
 
                S1      H2      H3    
      Total   15.1969  0.8972  0.9059
 
      N-E      0.8031  0.1028  0.0941
 
      Total electronic charge=   17.000000
 
      Total            charge=    1.000000
--
 
 

      Expectation values of various properties for root number:  4
      -----------------------------------------------------------
 
 
++    Molecular properties:
      ---------------------
 
      Charge (e):
                      =    1.0000
      Dipole Moment (Debye):
      Origin of the operator (Ang)=    0.0000    0.0000    0.0000
                   X= -5.7705E-02               Y=  3.6402E-02               Z=  1.4124E+00           Total=  1.4141E+00
[...]
     2       -0.849503845E-03  0.102205930E-02   0.00000000       0.00000000    
     3        0.484169152E-01  0.548082406E-01   0.00000000       0.00000000    
     4        0.523429621E-03 -0.416988296E-02   0.00000000       0.00000000    
     5        0.277078896E-17  0.334468972E-02   0.00000000       0.00000000    
     6       -0.334468972E-02 -0.253996643E-18   0.00000000       0.00000000    
     7         0.00000000       0.00000000      0.183501860E-17  0.329788304E-03
     8         0.00000000       0.00000000     -0.329788304E-03 -0.800276707E-17
     9       -0.667020404E-20 -0.831809471E-23   0.00000000       0.00000000    
 
 
 PROPERTY: MLTPV  2   COMPONENT:*   2
 ORIGIN    :  -0.56035333D-02   0.00000000D+00   0.13406721D+00
 STATE     :       9
 
     1        0.326907691E-22
     2        0.480838496E-20
     3        0.137959233E-18
     4       -0.805131559E-19
     5        0.667020404E-20
     6        0.831809471E-23
     7         0.00000000    
     8         0.00000000    
     9       -0.609293954E-17
 
 
 PROPERTY: MLTPV  2   COMPONENT:*   3
 ORIGIN    :  -0.56035333D-02   0.00000000D+00   0.13406721D+00
 STATE     :       1                2                3                4
 
     1       -0.583314456E-17  0.290153310E-03  0.119382964E-01  0.207034846E-02
     2       -0.290153310E-03  0.121222640E-16  0.380251628E-02  0.369612086E-02
     3       -0.119382964E-01 -0.380251628E-02 -0.417999828E-17  0.548106620E-01
     4       -0.207034846E-02 -0.369612086E-02 -0.548106620E-01  0.773449709E-17
     5       -0.958652109E-02 -0.489519632E-01  0.323116033E-02  0.637582825E-03
     6       -0.559347646E-01  0.486450853E-01 -0.909298368E-03 -0.511311888E-02
     7         0.00000000       0.00000000       0.00000000       0.00000000    
     8         0.00000000       0.00000000       0.00000000       0.00000000    
     9        0.179621082E-20  0.543429948E-20  0.172744044E-18  0.350155180E-21
 
 
 PROPERTY: MLTPV  2   COMPONENT:*   3
 ORIGIN    :  -0.56035333D-02   0.00000000D+00   0.13406721D+00
 STATE     :       5                6                7                8
 
     1        0.958652109E-02  0.559347646E-01   0.00000000       0.00000000    
     2        0.489519632E-01 -0.486450853E-01   0.00000000       0.00000000    
     3       -0.323116033E-02  0.909298368E-03   0.00000000       0.00000000    
     4       -0.637582825E-03  0.511311888E-02   0.00000000       0.00000000    
     5       -0.472553442E-17 -0.269483279E-02   0.00000000       0.00000000    
     6        0.269483279E-02 -0.138246228E-18   0.00000000       0.00000000    
     7         0.00000000       0.00000000     -0.327846783E-17 -0.720271455E-01
     8         0.00000000       0.00000000      0.720271455E-01  0.788567461E-17
     9        0.270296451E-19 -0.264091141E-21   0.00000000       0.00000000    
 
 
 PROPERTY: MLTPV  2   COMPONENT:*   3
 ORIGIN    :  -0.56035333D-02   0.00000000D+00   0.13406721D+00
 STATE     :       9
 
     1       -0.179621082E-20
     2       -0.543429948E-20
     3       -0.172744044E-18
     4       -0.350155180E-21
     5       -0.270296451E-19
     6        0.264091141E-21
     7         0.00000000    
     8         0.00000000    
     9        0.739083777E-17
 
 
 PROPERTY: MLTPV  2   COMPONENT:*   4
 ORIGIN    :  -0.56035333D-02   0.00000000D+00   0.13406721D+00
 STATE     :       1                2                3                4
 
     1        0.233093526E-15 -0.434289455E-02  0.610908516E-04  0.333386281    
     2        0.434289455E-02 -0.370313288E-15  0.518003735     -0.398441964E-02
     3       -0.610908516E-04 -0.518003735      0.165039411E-15 -0.188129814E-03
     4       -0.333386281      0.398441964E-02  0.188129814E-03 -0.584089956E-17
     5       -0.326879875     -0.983202471E-04  0.498070924E-02  0.418376595E-01
     6       -0.440174225E-01  0.116000062E-03  0.563717199E-02 -0.639921661    
     7         0.00000000       0.00000000       0.00000000       0.00000000    
     8         0.00000000       0.00000000       0.00000000       0.00000000    
     9        0.376417298E-23 -0.557919081E-18 -0.115411746E-17 -0.828121022E-20
 
 
 PROPERTY: MLTPV  2   COMPONENT:*   4
 ORIGIN    :  -0.56035333D-02   0.00000000D+00   0.13406721D+00
 STATE     :       5                6                7                8
 
     1        0.326879875      0.440174225E-01   0.00000000       0.00000000    
     2        0.983202471E-04 -0.116000062E-03   0.00000000       0.00000000    
     3       -0.498070924E-02 -0.563717199E-02   0.00000000       0.00000000    
     4       -0.418376595E-01  0.639921661       0.00000000       0.00000000    
     5       -0.223220254E-16  0.907947152E-01   0.00000000       0.00000000    
     6       -0.907947152E-01 -0.123117941E-15   0.00000000       0.00000000    
     7         0.00000000       0.00000000      0.340427822E-15 -0.500227775E-04
     8         0.00000000       0.00000000      0.500227775E-04 -0.169560312E-15
     9        0.692115566E-21  0.796579553E-24   0.00000000       0.00000000    
 
 
 PROPERTY: MLTPV  2   COMPONENT:*   4
 ORIGIN    :  -0.56035333D-02   0.00000000D+00   0.13406721D+00
 STATE     :       9
 
     1       -0.376417298E-23
     2        0.557919081E-18
     3        0.115411746E-17
     4        0.828121022E-20
     5       -0.692115566E-21
     6       -0.796579553E-24
     7         0.00000000    
     8         0.00000000    
     9       -0.325959741E-15
 
 
 PROPERTY: MLTPV  2   COMPONENT:*   5
 ORIGIN    :  -0.56035333D-02   0.00000000D+00   0.13406721D+00
 STATE     :       1                2                3                4
 
     1        0.586042775E-16  0.178046843E-02 -0.638699376E-03  0.872291062E-02
     2       -0.178046843E-02  0.741783329E-16  0.742904897E-01  0.145725869E-02
     3        0.638699376E-03 -0.742904897E-01 -0.809939183E-16 -0.273864769E-02
     4       -0.872291062E-02 -0.145725869E-02  0.273864769E-02  0.133331864E-15
     5       -0.188197321      0.255602117E-02 -0.222508588E-02  0.123530242E-01
     6        -1.08265314     -0.254756132E-02 -0.228371575E-02 -0.102008704    
     7         0.00000000       0.00000000       0.00000000       0.00000000    
     8         0.00000000       0.00000000       0.00000000       0.00000000    
     9       -0.938534163E-22  0.198453357E-18  0.306359312E-17  0.340550824E-20
 
 
 PROPERTY: MLTPV  2   COMPONENT:*   5
 ORIGIN    :  -0.56035333D-02   0.00000000D+00   0.13406721D+00
 STATE     :       5                6                7                8
 
     1        0.188197321       1.08265314       0.00000000       0.00000000    
     2       -0.255602117E-02  0.254756132E-02   0.00000000       0.00000000    
     3        0.222508588E-02  0.228371575E-02   0.00000000       0.00000000    
     4       -0.123530242E-01  0.102008704       0.00000000       0.00000000    
     5       -0.705042293E-16 -0.510725856E-02   0.00000000       0.00000000    
     6        0.510725856E-02 -0.168606162E-16   0.00000000       0.00000000    
     7         0.00000000       0.00000000      0.117175321E-16  0.372176273E-02
     8         0.00000000       0.00000000     -0.372176273E-02  0.113292209E-15
     9       -0.167503066E-20  0.132414068E-22   0.00000000       0.00000000    
 
 
 PROPERTY: MLTPV  2   COMPONENT:*   5
 ORIGIN    :  -0.56035333D-02   0.00000000D+00   0.13406721D+00
 STATE     :       9
 
     1        0.938534163E-22
     2       -0.198453357E-18
     3       -0.306359312E-17
     4       -0.340550824E-20
     5        0.167503066E-20
     6       -0.132414068E-22
     7         0.00000000    
     8         0.00000000    
     9       -0.318009221E-16
 
 
 PROPERTY: MLTPV  2   COMPONENT:*   6
 ORIGIN    :  -0.56035333D-02   0.00000000D+00   0.13406721D+00
 STATE     :       1                2                3                4
 
     1        0.319048304E-15  0.168058545E-04  0.101184837E-02  0.213118275    
     2       -0.168058545E-04 -0.419814585E-15  0.518017834      0.306095038E-03
     3       -0.101184837E-02 -0.518017834      0.198402414E-15  0.464472035E-02
     4       -0.213118275     -0.306095038E-03 -0.464472035E-02  0.334687328E-17
     5       -0.332008744     -0.414872464E-02  0.282759249E-03  0.417619465E-01
     6       -0.403041397E-01  0.412274923E-02 -0.669570011E-04 -0.639914873    
     7         0.00000000       0.00000000       0.00000000       0.00000000    
     8         0.00000000       0.00000000       0.00000000       0.00000000    
     9        0.152231031E-21 -0.515648991E-18 -0.135973772E-17  0.148325817E-22
 
 
 PROPERTY: MLTPV  2   COMPONENT:*   6
 ORIGIN    :  -0.56035333D-02   0.00000000D+00   0.13406721D+00
 STATE     :       5                6                7                8
 
     1        0.332008744      0.403041397E-01   0.00000000       0.00000000    
     2        0.414872464E-02 -0.412274923E-02   0.00000000       0.00000000    
     3       -0.282759249E-03  0.669570011E-04   0.00000000       0.00000000    
     4       -0.417619465E-01  0.639914873       0.00000000       0.00000000    
     5       -0.533021278E-17  0.873158786E-01   0.00000000       0.00000000    
     6       -0.873158786E-01 -0.149415231E-15   0.00000000       0.00000000    
     7         0.00000000       0.00000000      0.406893351E-15 -0.610419830E-02
     8         0.00000000       0.00000000      0.610419830E-02 -0.142914360E-15
     9        0.229193107E-20 -0.223795558E-22   0.00000000       0.00000000    
 
 
 PROPERTY: MLTPV  2   COMPONENT:*   6
 ORIGIN    :  -0.56035333D-02   0.00000000D+00   0.13406721D+00
 STATE     :       9
 
     1       -0.152231031E-21
     2        0.515648991E-18
     3        0.135973772E-17
     4       -0.148325817E-22
     5       -0.229193107E-20
     6        0.223795558E-22
     7         0.00000000    
     8         0.00000000    
     9       -0.389365152E-15
 
--
 
::    RASSI State    1     Total energy:    -398.81773936396007
::    RASSI State    2     Total energy:    -398.63882458071930
::    RASSI State    3     Total energy:    -398.61027880354476
::    RASSI State    4     Total energy:    -398.48793844749616
::    RASSI State    5     Total energy:    -398.48873891830499
::    RASSI State    6     Total energy:    -398.44303858140313
::    RASSI State    7     Total energy:    -398.46076578826535
::    RASSI State    8     Total energy:    -398.33252244756977
::    RASSI State    9     Total energy:    -398.65396350988556
 
 
 
      ****************************************************************************************************
      *                                                                                                  *
      *                                         Spin-free section                                        *
      *                                                                                                  *
      *                 Note: index according to input order, order according to energy.                 *
      *                                                                                                  *
      ****************************************************************************************************
 
 
 
  SPIN-FREE ENERGIES:
  (Shifted by EMIN (a.u.) =       -398.8177393640)
 
 SF State       Relative EMIN(au)   Rel lowest level(eV)    D:o, cm**(-1)
 
     1             0.0000000000        0.0000000000              0.0000
     9             0.1637758541        4.4565680230          35944.6452
     2             0.1789147832        4.8685192719          39267.2561
     3             0.2074605604        5.6452894403          45532.3300
     5             0.3290004457        8.9525582018          72207.2515
     4             0.3298009165        8.9743401222          72382.9346
     7             0.3569735757        9.7137458478          78346.6439
     6             0.3747007826       10.1961277208          82237.3161
     8             0.4852169164       13.2034249250         106492.8039
 
++ Dipole transition strengths (spin-free states):
   -----------------------------------------------
     for osc. strength at least  1.00000000E-05
 
      From   To        Osc. strength     Einstein coefficients Ax, Ay, Az (sec-1)    Total A (sec-1)
     -----------------------------------------------------------------------------------------------
         1    3       1.11921024E-04  1.54091357E+05  4.05404097E+02  2.75686186E+02  1.54772448E+05
         1    5       6.04287808E-03  4.67877172E+04  2.07959085E+07  1.73189003E+05  2.10158852E+07
         1    4       1.99854626E-02  1.35337918E+05  8.49090491E+04  6.96237052E+07  6.98439521E+07
         1    6       8.78069186E-01  1.05242885E+07  3.95028145E+09  2.30550901E+05  3.96103628E+09
         2    3       7.56939627E-03  5.28348166E+02  1.97631063E+05  1.87841395E+01  1.98178195E+05
         2    5       3.21102013E-03  2.31375278E+06  6.08732953E+03  4.13955514E+03  2.32397967E+06
         2    4       2.16285711E-05  1.57515030E+04  4.14411551E+01  2.81811505E+01  1.58211253E+04
         2    6       6.97080615E-03  8.54755263E+06  2.24880419E+04  1.52925005E+04  8.58533318E+06
         3    5       1.88436631E-05  8.90427346E+03  2.34265507E+01  1.59307127E+01  8.94363073E+03
         3    4       5.50547313E-03  2.63590432E+06  6.93488878E+03  4.71591924E+03  2.64755513E+06
         5    4       3.85094376E-04  2.04545491E-02  7.90682500E+00  8.19325471E-04  7.92809887E+00
         5    6       6.65738423E-05  8.70977400E+00  6.31187390E+00  4.45236262E+03  4.46738426E+03
         7    8       8.35165378E-03  4.39377326E+06  1.15597249E+04  7.86093776E+03  4.41319392E+06
     -----------------------------------------------------------------------------------------------
--
 
++ Velocity transition strengths (spin-free states):
   -------------------------------------------------
     for osc. strength at least  1.00000000E-05
 
      From   To        Osc. strength     Einstein coefficients Ax, Ay, Az (sec-1)    Total A (sec-1)
     -----------------------------------------------------------------------------------------------
         1    3       4.14864535E-03  5.71179902E+06  1.50273629E+04  1.02190291E+04  5.73704541E+06
         1    5       2.62974926E-03  1.77527781E+04  8.90778460E+06  2.20188863E+05  9.14572625E+06
         1    4       2.51600895E-02  1.65269209E+05  4.08888960E+04  8.77217582E+07  8.79279163E+07
         1    6       8.35166750E-01  1.00125325E+07  3.75725954E+09  2.28086071E+05  3.76750016E+09
         2    3       7.04465939E-04  4.68575988E+01  1.83902879E+04  6.83380422E+00  1.84439793E+04
         2    5       2.15772255E-03  1.55478208E+06  4.09052814E+03  2.78167409E+03  1.56165428E+06
         2    4       2.20509822E-05  1.60591336E+04  4.22505104E+01  2.87315351E+01  1.61301156E+04
         2    6       6.97179074E-03  8.54875993E+06  2.24912182E+04  1.52946605E+04  8.58654581E+06
         3    5       4.32292270E-05  2.04272840E+04  5.37428239E+01  3.65466297E+01  2.05175735E+04
         3    4       1.36117516E-02  6.51701933E+06  1.71458440E+04  1.16596557E+04  6.54582483E+06
         5    4       5.03731096E-02  2.70510253E+00  1.03433371E+03  1.34505493E-02  1.03705226E+03
         5    6       5.15399589E-05  2.00444626E+00  2.63110619E+03  8.25436946E+02  3.45854758E+03
         4    6       1.23565224E-02  2.07790572E+03  7.98270717E+05  3.32376260E+01  8.00381860E+05
         7    8       1.47579272E-02  7.76408934E+06  2.04268022E+04  1.38907995E+04  7.79840695E+06
     -----------------------------------------------------------------------------------------------
--
 
++ Length and velocity gauge comparison (spin-free states):
   --------------------------------------------------------
 
 --------------------------------------------------
 A comparison between the dipole oscillator strengths in 
 length and velocity gauge will be performed
 
     All dipole oscillator differences above the tolerance of   1.00000000E-01  will be printed 
 
 Due to basis set deficiency these oscillator may be problematic 
 
 The tolerance is defined as ABS(1-O_l/O_v) 
 O_l : dipole oscillator strength in length gauge
 O_p : dipole oscillator strength in velocity gauge
 --------------------------------------------------
 
  Problematic transitions have been found
 
      From   To       Difference (%) Osc. st. (len.) Osc. st. (vel.)
     ---------------------------------------------------------------
         1    3            97.302227  1.11921024E-04  4.14864535E-03
         1    5           129.789135  6.04287808E-03  2.62974926E-03
         1    4            20.566806  1.99854626E-02  2.51600895E-02
         2    3           974.487189  7.56939627E-03  7.04465939E-04
         2    5            48.815246  3.21102013E-03  2.15772255E-03
         3    5            56.409900  1.88436631E-05  4.32292270E-05
         3    4            59.553529  5.50547313E-03  1.36117516E-02
         5    4            99.235516  3.85094376E-04  5.03731096E-02
         5    6            29.169374  6.65738423E-05  5.15399589E-05
         4    6      --------------- below threshold  1.23565224E-02
         7    8            43.409033  8.35165378E-03  1.47579272E-02
     ---------------------------------------------------------------
 
 Number of problematic transitions =                     11
 
--
 
 Electric-dipole - electric-octupole not included
 Electric-dipole - magnetic-quadrupole not included
 
 
      ****************************************************************************************************
      *                                                                                                  *
      *                                    Special properties section                                    *
      *                                                                                                  *
      ****************************************************************************************************
 
 
++ I/O STATISTICS
 
  I. General I/O information
  - - - - - - - - - - - - - - - - - - - - - - - - - - - - - - - - - - - - - - - - - - -
  Unit  Name          Flsize      Write/Read            MBytes           Write/Read
                      (MBytes)       Calls              In/Out           Time, sec.
  - - - - - - - - - - - - - - - - - - - - - - - - - - - - - - - - - - - - - - - - - - -
   1  ANNI              0.00 .       0/       0 .      0.0/      0.0 .       0/       0
   2  RUNFILE           0.25 .     266/    3207 .      1.9/     23.2 .       0/       0
   3  ONEINT            1.45 .       0/    2103 .      0.0/   1905.2 .       0/       0
   4  JOB001            1.22 .       0/      83 .      0.0/      1.1 .       0/       0
   5  JOB002            1.22 .       0/      51 .      0.0/      1.1 .       0/       0
   6  JOB003            1.22 .       0/      43 .      0.0/      1.1 .       0/       0
  - - - - - - - - - - - - - - - - - - - - - - - - - - - - - - - - - - - - - - - - - - -
   *  TOTAL             5.36 .     266/    5487 .      1.9/   1931.7 .       0/       0
  - - - - - - - - - - - - - - - - - - - - - - - - - - - - - - - - - - - - - - - - - - -
 
  II. I/O Access Patterns
  - - - - - - - - - - - - - - - - - - - -
  Unit  Name               % of random
                         Write/Read calls
  - - - - - - - - - - - - - - - - - - - -
   1  ANNI                 0.0/   0.0
   2  RUNFILE             28.6/  10.6
   3  ONEINT               0.0/  98.3
   4  JOB001               0.0/  65.1
   5  JOB002               0.0/  74.5
   6  JOB003               0.0/  79.1
  - - - - - - - - - - - - - - - - - - - -
--
--- Stop Module: rassi at Fri Mar 22 17:06:38 2024 /rc=_RC_ALL_IS_WELL_ ---
--- Module rassi spent 3 seconds ---

.##################.
.# Happy landing! #.
.##################.

    Timing: Wall=14.69 User=12.56 System=1.75
