   This run of MOLCAS is using the pymolcas driver

                             OPE
                             OPE          NMOL  CASOP  ENMOLC A   SO
                 OPE        NMOLC        AS  OP EN  MO LC     AS  OP
                OPENM       OL CA        SO  PE NM  OL CA     SOP EN
                OP EN      MO   LC       AS  OP ENMOL  CASO   PENMOL
                OP  EN     MO   LC       AS  OP EN     MO     LC ASO
               OP   E  NMOL  C  AS       OP  EN MO     LC     AS  OP
               OP  E   NMO   LC AS        OPEN  MO     LCASOP EN   M
               O  PEN   MO  LCA  SO
            OPE   NMO   L   CAS    OP
        OPENMOL  CASOP     ENMOL   CASOPE
     OPENMOLCA   SOPENMOLCASOPEN   MOLCASOPE
    OPENMOLCAS   OP           EN   MOL    CAS
    OPENMOLCAS       OP  ENM        O     LCA
    OPENMOLCAS    OPEN  MOLCASO     P  E  NMO
    OPENMOLCAS     OP               E  N  MOL
    OPENMOLCA   SO           PENM   O  L  CAS    OPEN    MO    LCAS
    OPENMOLCA   SOP           ENM   O  L  CAS   OP  EN  MOLC  AS   O
    OPENMOLCA   SOPE           NM      O  LCA   S      OP  EN MO
    OPENMOLC                AS         O  PEN   M      OL  CA  SOPE
    OPENMO        LCASOPE  NMOL        C  ASO   P      ENMOLC     AS
    OPE     NMO      LCA  SO     P     E   NM   OL  CA SO  PE N   MO
          OPENMOLCA            SOPE   NMO        LCAS  O    P  ENMO
     OPENMOLCASOPENMOLCASOPENMOLCASOPENMOLCA
        OPENMOLCASOPENMOLCASOPENMOLCASOPE
            OPENMOLCASOPENMOLCASOPENM
               OPENMOLCASOPENMOLCA        version: v23.10
                   OPENMOLCASO
                       OPE                tag:

 OpenMolcas is free software; you can redistribute it and/or modify it
 under the terms of the GNU Lesser General Public License version 2.1.
 OpenMolcas is distributed in the hope that it will be useful, but it
 is provided "as is" and without any express or implied warranties.
 For more details see the full text of the license in the file
 LICENSE or in <http://www.gnu.org/licenses/>.

                 Copyright (C) The OpenMolcas Authors
           For the author list and the recommended citation,
                   consult the file CONTRIBUTORS.md

           *************************************************
           * pymolcas version py2.25                       *
           *   build 2b27fa14244bdc32cb1957e6230cd793      *
           *   (after the EMIL interpreter by V. Veryazov) *
           *************************************************

configuration info
------------------
Host name: manganese.itc.univie.ac.at (Linux)
C Compiler ID: Clang
C flags: -std=gnu99
Fortran Compiler ID: Intel
Fortran flags: -fpp -i8 -heap-arrays
Definitions: _MOLCAS_;_I8_;_LINUX_
Parallel: OFF (GA=OFF)


   ----------------------------------------------------------------------------------
  |
  |           Project: MOLCAS
  |    Submitted from: /public/manganese/scratch/tmp/sascha.925337/WORK/nacdr_2_1_2_2
  |      Scratch area: /public/manganese/scratch/tmp/sascha.925337/WORK/nacdr_2_1_2_2
  |   Save outputs to: WORKDIR
  |            Molcas: /usr/license/openmolcas/v23.10
  |
  | Scratch area is NOT empty
  |
  |        MOLCASMEM = 10000
  |    MOLCAS_DRIVER = /usr/license/openmolcas/v23.10/pymolcas
  |    MOLCAS_NPROCS = 1
  |    MOLCAS_SOURCE = /usr/license/openmolcas/v23.10
  | MOLCAS_STRUCTURE = 0
  |
   ----------------------------------------------------------------------------------

++ ---------   Input file   ---------

>>> COPY $master_path/MOLCAS.2.JobIph MOLCAS.2.JobIph

>>> COPY MOLCAS.2.JobIph JOBOLD

&RASSCF
SPIN=2
NACTEL=7 0 0
INACTIVE=5
RAS2=6
ITERATIONS=200,100
CIROOT=2 2 1
ORBLISTING=NOTHING
PRWF=0.1
THRS=0.000000010000 0.000100000000 0.000100000000
JOBIPH

&MCLR
THRESHOLD=0.0001
nac=1 2

&ALASKA

>>> COPY MOLCAS.2.JobIph JOB001

>>> COPY MOLCAS.JobIph JOB002

&RASSI
NROFJOBIPHS
2 2 2
1 2
1 2
MEIN
OVERLAPS

-- ----------------------------------

>>> COPY /public/manganese/scratch/tmp/sascha.925337/WORK/master/MOLCAS.2.JobIph MOLCAS.2.JobIph

>>> COPY MOLCAS.2.JobIph JOBOLD

--- Start Module: rasscf at Wed Mar 20 15:47:00 2024 ---
 
()()()()()()()()()()()()()()()()()()()()()()()()()()()()()()()()()()()()()()()()()()()()()()()()()()

                                              &RASSCF

                                   only a single process is used
                       available to each process: 10 GB of memory, 1 thread?
                                            pid: 1186645
()()()()()()()()()()()()()()()()()()()()()()()()()()()()()()()()()()()()()()()()()()()()()()()()()()
 
 
      Header of the ONEINT file:
      --------------------------
      
      Integrals generated by Gateway/Seward, Wed Mar 20 15:46:50 2024
 
 
      OrdInt status: non-squared
 
 
      Cartesian coordinates in Angstrom:
      -----------------------------------------------------
      No.  Label        X            Y            Z        
      -----------------------------------------------------
       1   S1         0.00000000   0.00000000   0.00084100
       2   H2         0.00000000   0.97479900   1.18293400
       3   H3         0.00000000  -0.97479900   1.18293400
      -----------------------------------------------------
      Nuclear repulsion energy =   11.32343694
 
++    Wave function specifications:
      -----------------------------
 
      Number of closed shell electrons          10
      Number of electrons in active shells       7
      Max number of holes in RAS1 space          0
      Max nr of electrons in RAS3 space          0
      Number of inactive orbitals                5
      Number of active orbitals                  6
      Number of secondary orbitals              17
      Spin quantum number                      0.5
      State symmetry                             1
--
 
++    Orbital specifications:
      -----------------------
 
      Symmetry species                           1
                                                 a
      Frozen orbitals                            0
      Inactive orbitals                          5
      Active orbitals                            6
      RAS1 orbitals                              0
      RAS2 orbitals                              6
      RAS3 orbitals                              0
      Secondary orbitals                        17
      Deleted orbitals                           0
      Number of basis functions                 28
--
 
++    CI expansion specifications:
      ----------------------------
 
      Number of CSFs                           210
      Number of determinants                   300
      Number of root(s) required                 2
      Root chosen for geometry opt.              2
      CI roots used                              1     2
      weights                                0.500 0.500
      highest root included in the CI            2
      max. size of the explicit Hamiltonian    200
--
 
++    Optimization specifications:
      ----------------------------
 
      RASSCF algorithm: LK RI/DF
      Maximum number of macro iterations       200
      Maximum number of SX iterations          100
      Threshold for RASSCF energy            0.100E-07
      Threshold for max MO rotation          0.100E-03
      Threshold for max BLB element          0.100E-03
      Level shift parameter                  0.500E+00
      Make Quasi-Newton update
--
 
      The MO-coefficients are taken from the file:
      JOBOLD
      Title:(No title given)                                                        
 
      Total molecular charge    1.00
 
      ************************************************************************************************************************
      *                                                                                                                      *
      *                                            Wave function control section                                             *
      *                                                                                                                      *
      ************************************************************************************************************************
 
 
                                         RASSCF iterations: Energy and convergence statistics
                                         ----------------------------------------------------
 
      Iter CI   SX   CI       RASSCF       Energy    max ROT     max BLB   max BLB  Level Ln srch  Step   QN   Walltime
          iter iter root      energy       change     param      element    value   shift minimum  type update hh:mm:ss
 Nr of preliminary CI iterations:   3
        1   1    3    0  -398.30489681    0.00E+00  -0.28E-04    7  16 1 -0.38E-05   0.00   0.00    SX    NO    0:00:00
        2   1    2    0  -398.30489681   -0.26E-09  -0.12E-04    7  28 1  0.12E-05   0.00   0.00    SX    NO    0:00:00
        3   1    2    0  -398.30489681   -0.45E-10  -0.53E-05    7  28 1  0.62E-06   0.00   0.00    SX    NO    0:00:00
        4   3    2    0  -398.30489681   -0.12E-08  -0.11E-04    7  16 1 -0.14E-05   0.00   0.00    SX    NO    0:00:00
      Convergence after  4 iterations
        5   1    2    0  -398.30489681   -0.39E-10  -0.11E-04    7  28 1  0.50E-06   0.00   0.00    SX    NO    0:00:00
 
      ************************************************************************************************************************
                                                      Wave function printout:
                       occupation of active orbitals, and spin coupling of open shells (u,d: Spin up or down)
      ************************************************************************************************************************
 
      Note: transformation to natural orbitals
      has been made, which may change the order of the CSFs.
 
      printout of CI-coefficients larger than  0.10 for root  1
      energy=    -398.370399
      conf/sym  111111     Coeff  Weight
             1  222u00  -0.97458 0.94981
            56  202u20  -0.10693 0.01143
 
      printout of CI-coefficients larger than  0.10 for root  2
      energy=    -398.239395
      conf/sym  111111     Coeff  Weight
             4  22u200  -0.97424 0.94913
           124  20u220  -0.10810 0.01169
 
      Natural orbitals and occupation numbers for root  1
      sym 1:   1.994833   1.950589   1.960837   1.000000   0.056261   0.037481
 
      Natural orbitals and occupation numbers for root  2
      sym 1:   1.977852   1.938963   1.006336   1.997828   0.047711   0.031311
 
      ************************************************************************************************************************
      *                                                                                                                      *
      *                                                    Final results                                                     *
      *                                                                                                                      *
      ************************************************************************************************************************
 
 
++    Wave function specifications:
      -----------------------------
 
      Number of closed shell electrons          10
      Number of electrons in active shells       7
      Max number of holes in RAS1 space          0
      Max nr of electrons in RAS3 space          0
      Number of inactive orbitals                5
      Number of active orbitals                  6
      Number of secondary orbitals              17
      Spin quantum number                      0.5
      State symmetry                             1
--
 
++    Orbital specifications:
      -----------------------
 
      Symmetry species                           1
                                                 a
      Frozen orbitals                            0
      Inactive orbitals                          5
      Active orbitals                            6
      RAS1 orbitals                              0
      RAS2 orbitals                              6
      RAS3 orbitals                              0
      Secondary orbitals                        17
      Deleted orbitals                           0
      Number of basis functions                 28
--
 
++    CI expansion specifications:
      ----------------------------
 
      Number of CSFs                           210
      Number of determinants                   300
      Number of root(s) required                 2
      CI roots used                              1     2
      weights                                0.500 0.500
      highest root included in the CI            2
      Root passed to geometry opt.               2
--
 
++    Final optimization conditions:
      ------------------------------
 
      Average CI energy                            -398.30489681
      RASSCF energy for state  2                   -398.23939484
      Super-CI energy                                -0.00000000
      RASSCF energy change                            0.00000000
      Max change in MO coefficients              -0.134E-04
      Max non-diagonal density matrix element    -0.111E-04
      Maximum BLB matrix element                  0.498E-06
      (orbital pair   7,  28 in symmetry   1)
      Norm of electronic gradient            0.472E-01
--
 
 
      Final state energy(ies):
      ------------------------
 
::    RASSCF root number  1 Total energy:   -398.37039879
::    RASSCF root number  2 Total energy:   -398.23939484
      Von Neumann Entropy (Root   1) =  0.81934
 

      Mulliken population analysis for root number:  1
      -----------------------------------------------
 
 
++    Molecular charges:
      ------------------
 
      Mulliken charges per centre
      ---------------------------
 
                S1      H2      H3    
      Total   15.4613  0.7693  0.7694
 
      N-E      0.5387  0.2307  0.2306
 
      Total electronic charge=   17.000000
 
      Total            charge=    1.000000
--
 
 

      Expectation values of various properties for root number:  1
      -----------------------------------------------------------
 
 
++    Molecular properties:
      ---------------------
 
      Charge (e):
                      =    1.0000
      Dipole Moment (Debye):
      Origin of the operator (Ang)=    0.0000    0.0000    0.0000
                   X= -7.8372E-13               Y=  2.2963E-06               Z=  2.6173E+00           Total=  2.6173E+00
      Center of Charge (Ang)
                     X=   -0.00000000               Y=    0.00000048               Z=    0.54491711
      Quadrupole Moment (Debye*Ang):
      Origin of the operator (Ang)=    0.0000    0.0000    0.0709
                  XX= -1.1643E+01              XY= -1.0950E-12              XZ= -3.2896E-13              YY= -9.5521E+00
                  YZ=  4.0238E-06              ZZ= -8.8148E+00
      In traceless form (Debye*Ang)
                  XX= -2.4596E+00              XY= -1.6424E-12              XZ= -4.9344E-13              YY=  6.7678E-01
                  YZ=  6.0358E-06              ZZ=  1.7829E+00
--
 

      Mulliken spin population analysis for root number:  1
      ---------------------------------------------------
 
 
++    Molecular charges:
      ------------------
 
      Mulliken spin population per centre
      ---------------------------
 
                S1      H2      H3    
      Total    1.0899 -0.0449 -0.0449
 
      Total electronic spin=    1.000000
--
 
 
      Von Neumann Entropy (Root   2) =  0.78185
 

      Mulliken population analysis for root number:  2
      -----------------------------------------------
 
 
++    Molecular charges:
      ------------------
 
      Mulliken charges per centre
      ---------------------------
 
                S1      H2      H3    
      Total   15.6230  0.6885  0.6885
 
      N-E      0.3770  0.3115  0.3115
 
      Total electronic charge=   17.000000
 
      Total            charge=    1.000000
--
 
 

      Expectation values of various properties for root number:  2
      -----------------------------------------------------------
 
 
++    Molecular properties:
      ---------------------
 
      Charge (e):
                      =    1.0000
      Dipole Moment (Debye):
      Origin of the operator (Ang)=    0.0000    0.0000    0.0000
                   X= -5.2946E-13               Y=  1.9387E-05               Z=  2.5758E+00           Total=  2.5758E+00
      Center of Charge (Ang)
                     X=   -0.00000000               Y=    0.00000404               Z=    0.53627135
      Quadrupole Moment (Debye*Ang):
      Origin of the operator (Ang)=    0.0000    0.0000    0.0709
                  XX= -1.4163E+01              XY= -4.0857E-12              XZ= -4.0965E-13              YY= -8.9685E+00
                  YZ=  4.1939E-05              ZZ= -6.1886E+00
      In traceless form (Debye*Ang)
                  XX= -6.5841E+00              XY= -6.1286E-12              XZ= -6.1447E-13              YY=  1.2071E+00
                  YZ=  6.2909E-05              ZZ=  5.3769E+00
--
 

      Mulliken spin population analysis for root number:  2
      ---------------------------------------------------
 
 
++    Molecular charges:
      ------------------
 
      Mulliken spin population per centre
      ---------------------------
 
                S1      H2      H3    
      Total    0.6690  0.1655  0.1655
 
      Total electronic spin=    1.000000
--
 
 
 
      Input file to MOLDEN was generated!
 
 
      Input file to MOLDEN was generated!
 
 
      Input file to MOLDEN was generated!
 
      Average orbitals are written to the RASORB file
      Natural orbitals for root   1 are written to the RASORB.1 file
      Natural orbitals for root   2 are written to the RASORB.2 file
      Spin density orbitals for root   1 are written to the SPDORB.1 file
      Spin density orbitals for root   2 are written to the SPDORB.2 file
 
--- Stop Module: rasscf at Wed Mar 20 15:47:02 2024 /rc=_RC_ALL_IS_WELL_ ---
--- Module rasscf spent 1 second ---

*** symbolic link created: INPORB -> MOLCAS.RasOrb
--- Start Module: mclr at Wed Mar 20 15:47:02 2024 ---
 
()()()()()()()()()()()()()()()()()()()()()()()()()()()()()()()()()()()()()()()()()()()()()()()()()()

                                               &MCLR

                                   only a single process is used
                       available to each process: 10 GB of memory, 1 thread?
                                            pid: 1186695
()()()()()()()()()()()()()()()()()()()()()()()()()()()()()()()()()()()()()()()()()()()()()()()()()()
 
 No .RLXPT2  or MCKINT  , I hope that is OK
 Seward mode is assumed, reading perturbation from ONEINT  
 OrdInt status: non-squared
 
++   Wave function specifications:
     -----------------------------
 
     Number of closed shell electrons             10
     Number of electrons in active shells          7
     Max number of holes in RAS1 space             0
     Max number of electrons in RAS3 space         0
     Number of inactive orbitals                   5
     Number of active orbitals                     6
     Number of secondary orbitals                 17
     Spin quantum number                         0.5
     State symmetry                                1
     Number of CI roots                            2
     States considered                             1     2
     Weights                                   0.500 0.500
 
     Symmetry species                              1
     Skipped sym. species                          0
     Frozen orbitals                               0
     Inactive orbitals                             5
     Active orbitals                               6
     RAS1 orbitals                                 0
     RAS2 orbitals                                 6
     RAS3 orbitals                                 0
     Deleted orbitals                              0
     Number of basis functions                    28
     Number of orbitals                           28
     Number of configurations                    210
     Number of combinations                      300
     Natural orbitals are used in the last CI
     RASSCF state energy =           -398.3703987882
     Size of explicit Hamiltonian in PCG:        100
--
 
     Convergence threshold=               1.0000E-04
     Max number of iterations in PCG:            200
     Using the Cho-MO Algorithm
     Lagrangian multipliers are calculated for states no.   1/  2
 
 
  Reordering of the Cholesky vectors to full storage. 
  Elapsed time for the reordering section:   9.999999999999995E-003
  CPU time for the reordering section:   9.999999999999995E-003
 
 TIMING INFORMATION:   CPU(s)   %CPU   Elapsed(s)
 Transformation          0.00    0.0         0.01
 Generation              0.01    1.0         0.01
 TOTAL                   0.03    3.0         0.04
 
        Iteration       Delta           Res(kappa)       Res(CI)          DeltaK
            DeltaC
            1      7.121569595E-02  1.440566731E-02  1.630555360E-02  8.666660206E-05  3.951305480E-04
            2      2.026264919E-02  1.318693113E-02  9.181967511E-03  5.825677068E-05  7.882658577E-05
            3      3.675650778E-03  4.252217229E-03  3.899886899E-03  1.003450150E-05  1.483246140E-05
            4      5.130386385E-04  1.251825181E-03  1.769244413E-03  4.556479132E-07  3.015223930E-06
            5      1.136962843E-04  6.911862044E-04  6.656313155E-04  3.346076634E-07  4.345843669E-07
            6      2.226219065E-05  2.982807924E-04  3.523161176E-04  4.488764803E-08  1.057232512E-07
            7      4.261724379E-06  1.234930427E-04  1.609698877E-04  6.725786009E-09  2.210615382E-08
      Perturbation no:    1 converged in    7 steps.
 
 
      The response parameters are written to the file RESP.
--- Stop Module: mclr at Wed Mar 20 15:47:02 2024 /rc=_RC_ALL_IS_WELL_ ---

*** symbolic link created: INPORB -> MOLCAS.RasOrb
--- Start Module: alaska at Wed Mar 20 15:47:02 2024 ---
 
()()()()()()()()()()()()()()()()()()()()()()()()()()()()()()()()()()()()()()()()()()()()()()()()()()

                                              &ALASKA

                                   only a single process is used
                       available to each process: 10 GB of memory, 1 thread?
                                            pid: 1186731
()()()()()()()()()()()()()()()()()()()()()()()()()()()()()()()()()()()()()()()()()()()()()()()()()()
 
 
                     Threshold for contributions to the gradient: 0.100E-06
 
 
                    ********************************************
                    * Symmetry Adapted Cartesian Displacements *
                    ********************************************
 
 
           Irreducible representation : a  
           Basis function(s) of irrep: x, y, xy, Rz, z, xz, Ry, yz, Rx, I                                              
 
 Basis Label        Type   Center Phase
   1   S1           x         1     1
   2   S1           y         1     1
   3   S1           z         1     1
   4   H2           x         2     1
   5   H2           y         2     1
   6   H2           z         2     1
   7   H3           x         3     1
   8   H3           y         3     1
   9   H3           z         3     1
 
                     No automatic utilization of translational and rotational invariance of the energy is employed.
 
 Skipping Nuclear Charge Contribution
 RI-ERI gradients!
 
 Wavefunction type: State average CASSCF
 
 A total of 12682. entities were prescreened and 12682. were kept.
 A total of 254047. entities were prescreened and 236773. were kept.
 
 *****************************************************
 *                                                   *
 *              CI derivative coupling               *
 *                                                   *
 *****************************************************
 
  Irreducible representation: a  
 ------------------------------------------------------------------------------------------
                              X                       Y                       Z
 ------------------------------------------------------------------------------------------
  S1                4.54058930544472E-02    4.54808952873154E-13    2.30420855511570E-13
  H2               -2.27031986450014E-02   -3.09330563076361E-13   -3.41765910333492E-13
  H3               -2.27026944094456E-02   -1.45478389796790E-13    1.11345054821923E-13
 ------------------------------------------------------------------------------------------
 
 
 ******************************************************
 *                                                    *
 *              CSF derivative coupling               *
 *                                                    *
 ******************************************************
 
  Irreducible representation: a  
 ------------------------------------------------------------------------------------------
                              X                       Y                       Z
 ------------------------------------------------------------------------------------------
  S1               -1.13001572614053E-01    2.01153414134174E-13    2.30941544714221E-13
  H2                2.56944339302685E-02    4.32261995042456E-14    9.91058859220474E-14
  H3                2.56937981336882E-02   -1.06678950650143E-15   -6.49917786846165E-14
 ------------------------------------------------------------------------------------------
 
               Energy difference: -1.310040E-01
 
 *******************************************************
 *                                                     *
 *              Total derivative coupling              *
 *                                                     *
 *******************************************************
 
  Irreducible representation: a  
 ------------------------------------------------------------------------------------------
                              X                       Y                       Z
 ------------------------------------------------------------------------------------------
  S1               -4.59600985544311E-01   -3.27056590371374E-12   -1.52794321395426E-12
  H2                1.98996064900520E-01    2.40445696386980E-12    2.70792725056564E-12
  H3                1.98991580093693E-01    1.10942176397583E-12   -9.14928384659732E-13
 ------------------------------------------------------------------------------------------
 
               norm:       0.5389
--- Stop Module: alaska at Wed Mar 20 15:47:03 2024 /rc=_RC_ALL_IS_WELL_ ---
--- Module alaska spent 1 second ---

>>> COPY MOLCAS.2.JobIph JOB001

>>> COPY MOLCAS.JobIph JOB002

*** symbolic link created: INPORB -> MOLCAS.RasOrb
--- Start Module: rassi at Wed Mar 20 15:47:03 2024 ---
 
()()()()()()()()()()()()()()()()()()()()()()()()()()()()()()()()()()()()()()()()()()()()()()()()()()

                                               &RASSI

                                   only a single process is used
                       available to each process: 10 GB of memory, 1 thread?
                                            pid: 1186775
()()()()()()()()()()()()()()()()()()()()()()()()()()()()()()()()()()()()()()()()()()()()()()()()()()
 
 
      ********************************************************************************
      *                                                                              *
      *                             General data section                             *
      *                                                                              *
      ********************************************************************************
 
   Specific data for JOBIPH file 
 JOB001                                                                         
                                                  
   -------------------------------------
 
   Header from SEWARD:
                                                                               
        Integrals generated by Gateway/Seward, Wed Mar 20 15:46:50 2024        
 
   CASSCF title (first line only):
       (No title given)                                                        
 
   STATE IRREP:                             1
   SPIN MULTIPLICITY:                       2
   ACTIVE ELECTRONS:                        7
   MAX RAS1 HOLES:                          0
   MAX RAS3 ELECTRONS:                      0
   NR OF CONFIG:                          210
 
   Specific data for JOBIPH file 
 JOB002                                                                         
                                                  
   -------------------------------------
 
   Header from SEWARD:
                                                                               
        Integrals generated by Gateway/Seward, Wed Mar 20 15:46:50 2024        
 
   CASSCF title (first line only):
       (No title given)                                                        
 
   STATE IRREP:                             1
   SPIN MULTIPLICITY:                       2
   ACTIVE ELECTRONS:                        7
   MAX RAS1 HOLES:                          0
   MAX RAS3 ELECTRONS:                      0
   NR OF CONFIG:                          210
 
   The following data are common to all the states:
   ------------------------------------------------
   (note: frozen counts as inactive, deleted as secondary)
 
      Nr of irreps: 1
 
                 Total     No./Irrep 
      Irrep                  1
                             a
 
      INACTIVE       5       5
      ACTIVE         6       6
      SECONDARY     17      17
      BASIS         28      28
 
      RAS1           0       0
      RAS2           6       6
      RAS3           0       0
 
        MATRIX ELEMENTS WILL BE COMPUTED FOR THE FOLLOWING ONE-ELECTRON OPERATOR
 S, UNLESS ZERO BY SYMMETRY.
   (Herm=Hermitian, Anti=Antihermitian, Sing=Singlet operator, Trip=Triplet oper
 ator)
     MLTPL  0   1 (HERMSING)     MLTPL  1   1 (HERMSING)     MLTPL  1   2 (HERMSING)
     MLTPL  1   3 (HERMSING)     MLTPL  2   1 (HERMSING)     MLTPL  2   2 (HERMSING)
     MLTPL  2   3 (HERMSING)     MLTPL  2   4 (HERMSING)     MLTPL  2   5 (HERMSING)
     MLTPL  2   6 (HERMSING)     VELOCITY   1 (ANTISING)     VELOCITY   2 (ANTISING)
     VELOCITY   3 (ANTISING)     ANGMOM     1 (ANTISING)     ANGMOM     2 (ANTISING)
     ANGMOM     3 (ANTISING)     MLTPV  2   1 (ANTISING)     MLTPV  2   2 (ANTISING)
     MLTPV  2   3 (ANTISING)     MLTPV  2   4 (ANTISING)     MLTPV  2   5 (ANTISING)
     MLTPV  2   6 (ANTISING)
 
       EIGENSTATES OF A SPIN-FREE HAMILTONIAN WILL BE COMPUTED BASED ON:
 
  A Hamiltonian matrix computed by RASSI.
 
  Nr of states:                     4
 
   State:        1   2   3   4
  JobIph:        1   1   2   2
 Root nr:        1   2   1   2
 

 MO OVERLAP MATRIX IN ORIGINAL ORBITAL BASES:

 
 SYMMETRY LABELS OF ROWS/COLS: 1 1


               1               2               3               4               5

   1   1.00000000      0.119740857E-08  0.582471947E-09  0.733138418E-09 -0.199188073E-14
   2 -0.119738604E-08   1.00000000      0.140651854E-06  0.712745593E-07 -0.387146916E-12
   3 -0.582384748E-09 -0.140646215E-06  0.999999995     -0.989456497E-04 -0.294096976E-10
   4 -0.733199712E-09 -0.712882459E-07  0.989456498E-04  0.999999995     -0.133185859E-09
   5  0.910165050E-15  0.387053334E-12  0.294231650E-10  0.133183665E-09   1.00000000    
   6 -0.166085080E-07  0.131554736E-05  0.104720542E-05 -0.130384579E-06  0.157911814E-12
   7  0.327468444E-09 -0.179746765E-06 -0.186611390E-06  0.359242824E-06  0.602464959E-12
   8  0.152831752E-08 -0.449612119E-07  0.155480884E-07 -0.127439319E-06 -0.195371522E-12
   9 -0.240870358E-15 -0.647623172E-15 -0.216602754E-15  0.261410468E-17  0.444637527E-07
  10  0.594314576E-10  0.247659878E-08  0.164036587E-07 -0.329340059E-07  0.113661454E-12
  11  0.100019391E-09  0.104627127E-08  0.255147862E-07 -0.101959262E-07 -0.747467542E-16


               6               7               8               9              10

   1  0.166085074E-07 -0.327332096E-09 -0.152831596E-08 -0.985786981E-16 -0.594463334E-10
   2 -0.131554837E-05  0.179738876E-06  0.449670478E-07 -0.175521391E-15 -0.247480057E-08
   3 -0.104721905E-05  0.186642712E-06 -0.155544379E-07 -0.353449482E-15 -0.164059001E-07
   4  0.130282662E-06 -0.359229054E-06  0.127424100E-06 -0.163929754E-15  0.329288569E-07
   5 -0.157134415E-12 -0.603259102E-12  0.195798593E-12 -0.444637717E-07 -0.113697342E-12
   6   1.00000000      0.470243757E-05  0.826221831E-06  0.147262628E-10 -0.482264253E-07
   7 -0.470246905E-05  0.999999999      0.384328098E-04  0.578459127E-12  0.110065769E-04
   8 -0.826043694E-06 -0.384328024E-04  0.999999999     -0.819661508E-11 -0.968313350E-06
   9 -0.147253672E-10 -0.578764744E-12  0.819722016E-11   1.00000000     -0.456405765E-11
  10  0.482141419E-07 -0.110067088E-04  0.967884890E-06  0.456249886E-11  0.999999998    
  11  0.200203314E-05  0.288123467E-06  0.557102684E-06  0.487890655E-11  0.239212203E-04


              11
   1 -0.100036420E-09
   2 -0.104397079E-08
   3 -0.255142585E-07
   4  0.101924546E-07
   5  0.200361922E-15
   6 -0.200202515E-05
   7 -0.288422317E-06
   8 -0.556997614E-06
   9 -0.487820363E-11
  10 -0.239219171E-04
  11  0.999999997    
 
 *******************************************************************************
 *
 
  HAMILTONIAN MATRIX FOR THE ORIGINAL STATES:
 
                   |    1 >          |    2 >          |    3 >          |    4 > 
 <    1 |      -398.37039865        0.00000000     -398.37039836       -0.00000000
 <    2 |         0.00000000     -398.23939497       -0.00000000      398.23939422
 <    3 |      -398.37039836       -0.00000000     -398.37039879        0.00000000
 <    4 |        -0.00000000      398.23939422        0.00000000     -398.23939484
 
      OVERLAP MATRIX FOR THE ORIGINAL STATES:
 
      1.00000000
     -0.00000000      1.00000000
      1.00000000      0.00000000      1.00000000
      0.00000000     -1.00000000     -0.00000000      1.00000000
 
++ Matrix elements for input states
   --------------------------------
 
  MATRIX ELEMENTS OF 1-ELECTRON OPERATORS
  FOR THE RASSCF INPUT WAVE FUNCTIONS:
 
 
 PROPERTY: MLTPL  0   COMPONENT:*   1
 ORIGIN    :   0.00000000D+00   0.00000000D+00   0.00000000D+00
 STATE     :       1                2                3                4
 
     1         1.00000000     -0.158640216E-15  0.999999999      0.143932422E-11
     2       -0.158640216E-15   1.00000000      0.143873695E-11 -0.999999998    
     3        0.999999999      0.143873695E-11   1.00000000     -0.742410946E-15
     4        0.143932422E-11 -0.999999998     -0.742410946E-15   1.00000000    
 
 
 PROPERTY: MLTPL  1   COMPONENT:*   1
 ORIGIN    :   0.00000000D+00   0.00000000D+00   0.00000000D+00
 STATE     :       1                2                3                4
 
     1        0.224791446E-10 -0.315553348      0.110829500E-10  0.315541401    
     2       -0.315553348     -0.426927528E-11 -0.315547095      0.223729784E-11
     3        0.110829500E-10 -0.315547095     -0.313940628E-12  0.315535149    
     4        0.315541401      0.223729784E-11  0.315535149     -0.208240339E-12
 
 
 PROPERTY: MLTPL  1   COMPONENT:*   2
 ORIGIN    :   0.00000000D+00   0.00000000D+00   0.00000000D+00
 STATE     :       1                2                3                4
 
     1        0.411814432E-05  0.107961607E-10  0.251077288E-05 -0.691592911E-11
     2        0.107961607E-10  0.369314949E-04  0.583086891E-11 -0.222800281E-04
     3        0.251077288E-05  0.583086891E-11  0.903430551E-06 -0.195079359E-11
     4       -0.691592911E-11 -0.222800281E-04 -0.195079359E-11  0.762740073E-05
 
 
 PROPERTY: MLTPL  1   COMPONENT:*   3
 ORIGIN    :   0.00000000D+00   0.00000000D+00   0.00000000D+00
 STATE     :       1                2                3                4
 
     1         1.02971946      0.136963170E-10   1.02973178     -0.972911057E-11
     2        0.136963170E-10   1.01332927      0.442939224E-11  -1.01336762    
     3         1.02973178      0.442939224E-11   1.02974411     -0.464368484E-12
     4       -0.972911057E-11  -1.01336762     -0.464368484E-12   1.01340598    
 
 
 PROPERTY: MLTPL  2   COMPONENT:*   1
 ORIGIN    :   0.00000000D+00   0.00000000D+00   0.13406721D+00
 STATE     :       1                2                3                4
 
     1        -8.65633753      0.142746800E-11  -8.65634771     -0.139422784E-10
     2        0.142746800E-11  -10.5295299     -0.125199886E-10   10.5295407    
     3        -8.65634771     -0.125199886E-10  -8.65635790      0.101071266E-13
     4       -0.139422784E-10   10.5295407      0.101071266E-13  -10.5295515    
 
 
 PROPERTY: MLTPL  2   COMPONENT:*   2
 ORIGIN    :   0.00000000D+00   0.00000000D+00   0.13406721D+00
 STATE     :       1                2                3                4
 
     1        0.501482904E-11  0.361355545E-04  0.210350611E-11 -0.804709023E-05
     2        0.361355545E-04 -0.194544129E-10  0.355408884E-04  0.112452121E-10
     3        0.210350611E-11  0.355408884E-04 -0.807796186E-12 -0.745217499E-05
     4       -0.804709023E-05  0.112452121E-10 -0.745217499E-05 -0.303672722E-11
 
 
 PROPERTY: MLTPL  2   COMPONENT:*   3
 ORIGIN    :   0.00000000D+00   0.00000000D+00   0.13406721D+00
 STATE     :       1                2                3                4
 
     1       -0.187810497E-11  0.827088453     -0.106310740E-11 -0.827092298    
     2        0.827088453      0.623888424E-11  0.827089237     -0.296433792E-11
     3       -0.106310740E-11  0.827089237     -0.249629952E-12 -0.827093083    
     4       -0.827092298     -0.296433792E-11 -0.827093083     -0.311191128E-12
 
 
 PROPERTY: MLTPL  2   COMPONENT:*   4
 ORIGIN    :   0.00000000D+00   0.00000000D+00   0.13406721D+00
 STATE     :       1                2                3                4
 
     1        -7.10180346      0.414971568E-11  -7.10179444     -0.103000310E-10
     2        0.414971568E-11  -6.66790696     -0.560714019E-11   6.66787872    
     3        -7.10179444     -0.560714019E-11  -7.10178544     -0.540940247E-12
     4       -0.103000310E-10   6.66787872     -0.540940247E-12  -6.66785051    
 
 
 PROPERTY: MLTPL  2   COMPONENT:*   5
 ORIGIN    :   0.00000000D+00   0.00000000D+00   0.13406721D+00
 STATE     :       1                2                3                4
 
     1        0.122515353E-04  0.308294722E-10  0.762140115E-05 -0.147026866E-10
     2        0.308294722E-10  0.150094295E-03  0.204565171E-10 -0.906381925E-04
     3        0.762140115E-05  0.204565171E-10  0.299162675E-05 -0.432958731E-11
     4       -0.147026866E-10 -0.906381925E-04 -0.432958731E-11  0.311808783E-04
 
 
 PROPERTY: MLTPL  2   COMPONENT:*   6
 ORIGIN    :   0.00000000D+00   0.00000000D+00   0.13406721D+00
 STATE     :       1                2                3                4
 
     1        -6.55362810      0.121352556E-11  -6.55358991     -0.807744740E-11
     2        0.121352556E-11  -4.60120684     -0.630922487E-11   4.60114435    
     3        -6.55358991     -0.630922487E-11  -6.55355173     -0.554084853E-12
     4       -0.807744740E-11   4.60114435     -0.554084853E-12  -4.60108187    
 
 
 PROPERTY: VELOCITY   COMPONENT:*   1
 ORIGIN    :   0.00000000D+00   0.00000000D+00   0.00000000D+00
 STATE     :       1                2                3                4
 
     1       -0.585915867E-27  0.616183924E-01  0.435320853E-11 -0.616121395E-01
     2       -0.616183924E-01 -0.131472635E-26 -0.616195936E-01  0.184559364E-11
     3       -0.435320853E-11  0.616195936E-01 -0.589180549E-28 -0.616133406E-01
     4        0.616121395E-01 -0.184559364E-11  0.616133406E-01 -0.815551975E-29
 
 
 PROPERTY: VELOCITY   COMPONENT:*   2
 ORIGIN    :   0.00000000D+00   0.00000000D+00   0.00000000D+00
 STATE     :       1                2                3                4
 
     1       -0.378733470E-16  0.260565228E-12  0.505058827E-06 -0.151643800E-11
     2       -0.260565228E-12  0.220259466E-16  0.149945312E-11 -0.294714370E-05
     3       -0.505058827E-06 -0.149945312E-11  0.183106333E-16  0.243312824E-12
     4        0.151643800E-11  0.294714370E-05 -0.243312824E-12  0.292508689E-16
 
 
 PROPERTY: VELOCITY   COMPONENT:*   3
 ORIGIN    :   0.00000000D+00   0.00000000D+00   0.00000000D+00
 STATE     :       1                2                3                4
 
     1        0.819771205E-17  0.354362709E-11 -0.783190738E-05 -0.483747548E-11
     2       -0.354362709E-11 -0.701249935E-16  0.155937928E-11  0.189317560E-04
     3        0.783190738E-05 -0.155937928E-11  0.405894665E-16  0.265055652E-12
     4        0.483747548E-11 -0.189317560E-04 -0.265055652E-12 -0.826109448E-17
 
 
 PROPERTY: ANGMOM     COMPONENT:*   1
 ORIGIN    :   0.00000000D+00   0.00000000D+00   0.00000000D+00
 STATE     :       1                2                3                4
 
     1       -0.969948677E-16 -0.659182046E-11 -0.982905570E-06  0.448386795E-11
     2        0.659182046E-11 -0.286699731E-16  0.238307722E-11  0.330621467E-04
     3        0.982905570E-06 -0.238307722E-11  0.169015938E-16  0.275279210E-12
     4       -0.448386795E-11 -0.330621467E-04 -0.275279210E-12  0.251644849E-16
 
 
 PROPERTY: ANGMOM     COMPONENT:*   2
 ORIGIN    :   0.00000000D+00   0.00000000D+00   0.00000000D+00
 STATE     :       1                2                3                4
 
     1        0.229646831E-26  0.888930268      0.134744734E-11 -0.888930390    
     2       -0.888930268      0.140824691E-25 -0.888932021     -0.670162950E-11
     3       -0.134744734E-11  0.888932021     -0.144091764E-26 -0.888932143    
     4        0.888930390      0.670162950E-11  0.888932143     -0.241412270E-27
 
 
 PROPERTY: ANGMOM     COMPONENT:*   3
 ORIGIN    :   0.00000000D+00   0.00000000D+00   0.00000000D+00
 STATE     :       1                2                3                4
 
     1       -0.398630859E-28 -0.426984510E-04  0.127956180E-11  0.968642268E-05
     2        0.426984510E-04 -0.226306067E-26  0.415942239E-04 -0.856190328E-11
     3       -0.127956180E-11 -0.415942239E-04 -0.150281017E-26  0.858195125E-05
     4       -0.968642268E-05  0.856190328E-11 -0.858195125E-05 -0.613778617E-27
 
 
 PROPERTY: MLTPV  2   COMPONENT:*   1
 ORIGIN    :   0.00000000D+00   0.00000000D+00   0.13406721D+00
 STATE     :       1                2                3                4
 
     1       -0.340435493E-15  0.605517324E-12 -0.851990650E-05  0.170142102E-11
     2       -0.605517324E-12  0.235988293E-16 -0.221071575E-11 -0.258914200E-06
     3        0.851990650E-05  0.221071575E-11 -0.115006475E-15  0.960983465E-13
     4       -0.170142102E-11  0.258914200E-06 -0.960983465E-13 -0.241394570E-16
 
 
 PROPERTY: MLTPV  2   COMPONENT:*   2
 ORIGIN    :   0.00000000D+00   0.00000000D+00   0.13406721D+00
 STATE     :       1                2                3                4
 
     1       -0.240740699E-27  0.375050964E-05 -0.359126741E-12 -0.947178364E-06
     2       -0.375050964E-05  0.556395851E-28 -0.357213864E-05 -0.969338978E-12
     3        0.359126741E-12  0.357213864E-05  0.150503991E-27 -0.768862873E-06
     4        0.947178364E-06  0.969338978E-12  0.768862873E-06 -0.118910156E-27
 
 
 PROPERTY: MLTPV  2   COMPONENT:*   3
 ORIGIN    :   0.00000000D+00   0.00000000D+00   0.13406721D+00
 STATE     :       1                2                3                4
 
     1        0.243580711E-28  0.733579228E-01  0.276147812E-12 -0.733591312E-01
     2       -0.733579228E-01 -0.109178811E-28 -0.733568881E-01 -0.857047686E-13
     3       -0.276147812E-12  0.733568881E-01  0.132153617E-27 -0.733580966E-01
     4        0.733591312E-01  0.857047686E-13  0.733580966E-01 -0.589849689E-28
 
 
 PROPERTY: MLTPV  2   COMPONENT:*   4
 ORIGIN    :   0.00000000D+00   0.00000000D+00   0.13406721D+00
 STATE     :       1                2                3                4
 
     1       -0.466552813E-15  0.139246042E-11  0.721730852E-05  0.278526851E-11
     2       -0.139246042E-11  0.123145426E-15 -0.436718561E-11 -0.263089876E-04
     3       -0.721730852E-05  0.436718561E-11 -0.137345957E-15 -0.189048228E-12
     4       -0.278526851E-11  0.263089876E-04  0.189048228E-12  0.371137074E-17
 
 
 PROPERTY: MLTPV  2   COMPONENT:*   5
 ORIGIN    :   0.00000000D+00   0.00000000D+00   0.13406721D+00
 STATE     :       1                2                3                4
 
     1        0.601327164E-16  0.472871721E-11 -0.232748833E-05  0.241562241E-11
     2       -0.472871721E-11 -0.804497953E-16 -0.800762453E-11  0.604965249E-05
     3        0.232748833E-05  0.800762453E-11 -0.358968519E-16 -0.863129609E-12
     4       -0.241562241E-11 -0.604965249E-05  0.863129609E-12 -0.777253704E-16
 
 
 PROPERTY: MLTPV  2   COMPONENT:*   6
 ORIGIN    :   0.00000000D+00   0.00000000D+00   0.13406721D+00
 STATE     :       1                2                3                4
 
     1       -0.506904959E-15  0.107781741E-11  0.163721147E-04  0.321418216E-11
     2       -0.107781741E-11  0.185870624E-15 -0.434876977E-11 -0.387991649E-04
     3       -0.163721147E-04  0.434876977E-11 -0.185767959E-15 -0.564403997E-13
     4       -0.321418216E-11  0.387991649E-04  0.564403997E-13 -0.232649144E-16
 
--
 
::    RASSI State    1     Total energy:    -397.34802080605800
::    RASSI State    2     Total energy:    -397.77581696465836
::    RASSI State    3     Total energy:    -398.37040135066974
::    RASSI State    4     Total energy:    -398.23939781763391
 
 
 
      ****************************************************************************************************
      *                                                                                                  *
      *                                         Spin-free section                                        *
      *                                                                                                  *
      *                 Note: index according to input order, order according to energy.                 *
      *                                                                                                  *
      ****************************************************************************************************
 
 
 
  SPIN-FREE ENERGIES:
  (Shifted by EMIN (a.u.) =       -398.3704013507)
 
 SF State       Relative EMIN(au)   Rel lowest level(eV)    D:o, cm**(-1)
 
     3             0.0000000000        0.0000000000              0.0000
     4             0.1310035330        3.5647877370          28751.9521
     2             0.5945843860       16.1794653836         130496.1889
     1             1.0223805446       27.8203918898         224386.5931
 
   Spin-free eigenstates in basis of input states:
   -----------------------------------------------
 
     Eigenstate No.    3 energy=   -398.3704013507
 3 38.462807 1 -37.462808                                                       
                      
 
     Eigenstate No.    4 energy=   -398.2393978176
 4 42.206574 2 43.206571                                                        
                      
 
     Eigenstate No.    2 energy=   -397.7758169647
 4************ 2************                                                    
                      
 
     Eigenstate No.    1 energy=   -397.3480208061
 3************ 123663.970507                                                    
                      
 
 
++ Dipole transition strengths (spin-free states):
   -----------------------------------------------
     for osc. strength at least  1.00000000E-05
 
      From   To        Osc. strength     Einstein coefficients Ax, Ay, Az (sec-1)    Total A (sec-1)
     -----------------------------------------------------------------------------------------------
         3    4       8.71075928E-03  4.80322480E+06  1.30402618E-11  1.43086957E-10  4.80322480E+06
         3    2       1.62215496E-02  1.84259642E+08  1.63291524E-05  3.60297923E-05  1.84259642E+08
         3    1       5.85650393E-02  1.71276924E-03  3.30717084E+07  1.93379295E+09  1.96686466E+09
         4    2       1.51195180E-01  3.16672813E-08  1.32089902E+08  9.11908441E+08  1.04399834E+09
         4    1       1.32256894E-02  3.37638577E+08  1.51046151E-04  1.40571802E-03  3.37638577E+08
         2    1       2.38855041E-02  1.40449131E+08  1.44237301E-05  8.87750931E-04  1.40449131E+08
     -----------------------------------------------------------------------------------------------
--
 
++ Velocity transition strengths (spin-free states):
   -------------------------------------------------
     for osc. strength at least  1.00000000E-05
 
      From   To        Osc. strength     Einstein coefficients Ax, Ay, Az (sec-1)    Total A (sec-1)
     -----------------------------------------------------------------------------------------------
         3    4       1.95166782E-02  1.07617476E+07  6.38363034E-11  5.74195786E-10  1.07617476E+07
         3    2       1.27081899E-02  1.44351593E+08  4.89119189E-06  3.57362085E-05  1.44351593E+08
         3    1       2.24910581E-02  2.57476571E-04  3.12818517E+06  7.52217800E+08  7.55345985E+08
         4    2       1.53248234E-01  7.96648793E-06  2.50368151E+07  1.03313781E+09  1.05817462E+09
         4    1       6.05272936E-04  1.54520106E+07  2.80240328E-05  3.98104515E-04  1.54520106E+07
         2    1       3.83415590E-03  2.25452166E+07  1.02154070E-04  3.94335288E-04  2.25452166E+07
     -----------------------------------------------------------------------------------------------
--
 
++ Length and velocity gauge comparison (spin-free states):
   --------------------------------------------------------
 
 --------------------------------------------------
 A comparison between the dipole oscillator strengths in 
 length and velocity gauge will be performed
 
     All dipole oscillator differences above the tolerance of   1.00000000E-01  will be printed 
 
 Due to basis set deficiency these oscillator may be problematic 
 
 The tolerance is defined as ABS(1-O_l/O_v) 
 O_l : dipole oscillator strength in length gauge
 O_p : dipole oscillator strength in velocity gauge
 --------------------------------------------------
 
  Problematic transitions have been found
 
      From   To       Difference (%) Osc. st. (len.) Osc. st. (vel.)
     ---------------------------------------------------------------
         3    4            55.367613  8.71075928E-03  1.95166782E-02
         3    2            27.646421  1.62215496E-02  1.27081899E-02
         3    1           160.392548  5.85650393E-02  2.24910581E-02
         4    1          2085.078600  1.32256894E-02  6.05272936E-04
         2    1           522.966430  2.38855041E-02  3.83415590E-03
     ---------------------------------------------------------------
 
 Number of problematic transitions =                      5
 
--
 
 Electric-dipole - electric-octupole not included
 Electric-dipole - magnetic-quadrupole not included
 
 
      ****************************************************************************************************
      *                                                                                                  *
      *                                    Special properties section                                    *
      *                                                                                                  *
      ****************************************************************************************************
 
 
++ I/O STATISTICS
 
  I. General I/O information
  - - - - - - - - - - - - - - - - - - - - - - - - - - - - - - - - - - - - - - - - - - -
  Unit  Name          Flsize      Write/Read            MBytes           Write/Read
                      (MBytes)       Calls              In/Out           Time, sec.
  - - - - - - - - - - - - - - - - - - - - - - - - - - - - - - - - - - - - - - - - - - -
   1  ANNI              0.00 .       0/       0 .      0.0/      0.0 .       0/       0
   2  RUNFILE           0.28 .     203/    1968 .      1.4/     14.2 .       0/       0
   3  ONEINT            1.46 .       0/     722 .      0.0/    660.3 .       0/       0
   4  JOB001            1.18 .       0/      44 .      0.0/      0.2 .       0/       0
   5  JOB002            1.14 .       0/      44 .      0.0/      0.2 .       0/       0
   6  CHRED             0.01 .       0/      18 .      0.0/      0.0 .       0/       0
   7  CHVEC1            0.36 .       0/      15 .      0.0/      1.1 .       0/       0
   8  CHORST            0.00 .       0/      36 .      0.0/      0.0 .       0/       0
   9  CHOMAP            0.00 .       0/       0 .      0.0/      0.0 .       0/       0
  10  CHODIAG           0.00 .       0/       3 .      0.0/      0.0 .       0/       0
  - - - - - - - - - - - - - - - - - - - - - - - - - - - - - - - - - - - - - - - - - - -
   *  TOTAL             4.43 .     203/    2850 .      1.4/    675.9 .       0/       0
  - - - - - - - - - - - - - - - - - - - - - - - - - - - - - - - - - - - - - - - - - - -
 
  II. I/O Access Patterns
  - - - - - - - - - - - - - - - - - - - -
  Unit  Name               % of random
                         Write/Read calls
  - - - - - - - - - - - - - - - - - - - -
   1  ANNI                 0.0/   0.0
   2  RUNFILE             28.6/  10.7
   3  ONEINT               0.0/  98.2
   4  JOB001               0.0/  77.3
   5  JOB002               0.0/  77.3
   6  CHRED                0.0/  16.7
   7  CHVEC1               0.0/   0.0
   8  CHORST               0.0/   0.0
   9  CHOMAP               0.0/   0.0
  10  CHODIAG              0.0/   0.0
  - - - - - - - - - - - - - - - - - - - -
--
--- Stop Module: rassi at Wed Mar 20 15:47:04 2024 /rc=_RC_ALL_IS_WELL_ ---

.##################.
.# Happy landing! #.
.##################.

    Timing: Wall=3.96 User=3.39 System=0.47
