   This run of MOLCAS is using the pymolcas driver

                             OPE
                             OPE          NMOL  CASOP  ENMOLC A   SO
                 OPE        NMOLC        AS  OP EN  MO LC     AS  OP
                OPENM       OL CA        SO  PE NM  OL CA     SOP EN
                OP EN      MO   LC       AS  OP ENMOL  CASO   PENMOL
                OP  EN     MO   LC       AS  OP EN     MO     LC ASO
               OP   E  NMOL  C  AS       OP  EN MO     LC     AS  OP
               OP  E   NMO   LC AS        OPEN  MO     LCASOP EN   M
               O  PEN   MO  LCA  SO
            OPE   NMO   L   CAS    OP
        OPENMOL  CASOP     ENMOL   CASOPE
     OPENMOLCA   SOPENMOLCASOPEN   MOLCASOPE
    OPENMOLCAS   OP           EN   MOL    CAS
    OPENMOLCAS       OP  ENM        O     LCA
    OPENMOLCAS    OPEN  MOLCASO     P  E  NMO
    OPENMOLCAS     OP               E  N  MOL
    OPENMOLCA   SO           PENM   O  L  CAS    OPEN    MO    LCAS
    OPENMOLCA   SOP           ENM   O  L  CAS   OP  EN  MOLC  AS   O
    OPENMOLCA   SOPE           NM      O  LCA   S      OP  EN MO
    OPENMOLC                AS         O  PEN   M      OL  CA  SOPE
    OPENMO        LCASOPE  NMOL        C  ASO   P      ENMOLC     AS
    OPE     NMO      LCA  SO     P     E   NM   OL  CA SO  PE N   MO
          OPENMOLCA            SOPE   NMO        LCAS  O    P  ENMO
     OPENMOLCASOPENMOLCASOPENMOLCASOPENMOLCA
        OPENMOLCASOPENMOLCASOPENMOLCASOPE
            OPENMOLCASOPENMOLCASOPENM
               OPENMOLCASOPENMOLCA        version: 23.06
                   OPENMOLCASO
                       OPE                tag: 105-gffc277a3d

 OpenMolcas is free software; you can redistribute it and/or modify it
 under the terms of the GNU Lesser General Public License version 2.1.
 OpenMolcas is distributed in the hope that it will be useful, but it
 is provided "as is" and without any express or implied warranties.
 For more details see the full text of the license in the file
 LICENSE or in <http://www.gnu.org/licenses/>.

                 Copyright (C) The OpenMolcas Authors
           For the author list and the recommended citation,
                   consult the file CONTRIBUTORS.md

           *************************************************
           * pymolcas version py2.25                       *
           *   build 2b27fa14244bdc32cb1957e6230cd793      *
           *   (after the EMIL interpreter by V. Veryazov) *
           *************************************************

configuration info
------------------
Host name: manganese.itc.univie.ac.at (Linux)
C Compiler ID: GNU
C flags: -std=gnu99
Fortran Compiler ID: Intel
Fortran flags: -fpp -i8 -heap-arrays
Definitions: _MOLCAS_;_I8_;_LINUX_
Parallel: OFF (GA=OFF)


   ---------------------------------------------------------------------------
  |
  |           Project: MOLCAS
  |    Submitted from: /public/manganese/scratch/tmp/sascha.925337/WORK/master
  |      Scratch area: /public/manganese/scratch/tmp/sascha.925337/WORK/master
  |   Save outputs to: WORKDIR
  |            Molcas: /usr/license/openmolcas/v23.06
  |
  | Scratch area is NOT empty
  |
  |        MOLCASMEM = 10000
  |    MOLCAS_DRIVER = /usr/license/openmolcas/v23.06/bin/pymolcas
  |    MOLCAS_NPROCS = 1
  |    MOLCAS_SOURCE = /usr/license/openmolcas/v23.06
  | MOLCAS_STRUCTURE = 0
  |
   ---------------------------------------------------------------------------

++ ---------   Input file   ---------

&GATEWAY
COORD=MOLCAS.xyz
GROUP=NOSYM
BASIS=cc-pvdz
AMFI
angmom
0 0 0
BASLIB
/user/sascha/development/eci/sharc_main/examples/SHARC_MOLCAS/basisset

RICD
CDTHreshold=0.0001

&SEWARD
DOANA

&RASSCF
SPIN=1
NACTEL=8 0 0
INACTIVE=5
RAS2=6
ITERATIONS=200,100
CIROOT=4 5
 1 2 3 4
1 1 1 1
THRS=0.000000010000 0.000100000000 0.000100000000

>>> COPY MOLCAS.rasscf.molden MOLCAS.1.molden

&CASPT2
SHIFT=0.0
IMAGINARY= 0.000
IPEASHIFT= 0.00
MAXITER=120
XMULTISTATE= 4 1 2 3 4
OUTPUT=BRIEF
PRWF=0.1

>>> COPY MOLCAS.JobMix MOLCAS.1.JobIph

&RASSCF
SPIN=2
NACTEL=7 0 0
INACTIVE=5
RAS2=6
ITERATIONS=200,100
CIROOT=2 2 1
THRS=0.000000010000 0.000100000000 0.000100000000

>>> COPY MOLCAS.rasscf.molden MOLCAS.2.molden

&CASPT2
SHIFT=0.0
IMAGINARY= 0.000
IPEASHIFT= 0.00
MAXITER=120
XMULTISTATE= 2 1 2
OUTPUT=BRIEF
PRWF=0.1

>>> COPY MOLCAS.JobMix MOLCAS.2.JobIph

>>> COPY MOLCAS.1.JobIph JOB001

&RASSI
NROFJOBIPHS
1 4
1 2 3 4
MEIN
EJOB

>>> COPY MOLCAS.2.JobIph JOB001

&RASSI
NROFJOBIPHS
1 2
1 2
MEIN
EJOB

>>> COPY MOLCAS.1.JobIph JOB001

>>> COPY MOLCAS.2.JobIph JOB002

&RASSI
NROFJOBIPHS
2 4 2
1 2 3 4
1 2
MEIN
EJOB
SPINORBIT
SOCOUPLING=0.0d0
EJOB

-- ----------------------------------

--- Start Module: gateway at Fri Mar 15 17:04:47 2024 ---
 
()()()()()()()()()()()()()()()()()()()()()()()()()()()()()()()()()()()()()()()()()()()()()()()()()()

                                              &GATEWAY

                                   only a single process is used
                       available to each process: 10 GB of memory, 1 thread?
                                            pid: 1055420
()()()()()()()()()()()()()()()()()()()()()()()()()()()()()()()()()()()()()()()()()()()()()()()()()()
 
 
 
 Basis Set     1 Label: S.CC-PVDZ
 Basis set is read from library:/user/sascha/development/eci/sharc_main/examples/SHARC_MOLCAS/basisset 
 
 
 Basis Set     2 Label: H.CC-PVDZ
 Basis set is read from library:/user/sascha/development/eci/sharc_main/examples/SHARC_MOLCAS/basisset 
 
++    Symmetry information:
      ---------------------
 
                    Character Table for C1 
 
                             E  
                    a        1  x, y, xy, Rz, z, xz, Ry, yz, Rx, I
--
 
 
++    Basis set information:
      ----------------------
 
 
      Basis set label: S.CC-PVDZ.........
 
      Electronic valence basis set:
      ------------------
      Associated Effective Charge  16.000000 au
      Associated Actual Charge     16.000000 au
      Nuclear Model: Point charge
 
      Shell  nPrim  nBasis  Cartesian Spherical Contaminant
         s      12       4        X                  
         p       8       3        X                  
         d       1       1                 X         
 
 
      Basis set label: H.CC-PVDZ.........
 
      Electronic valence basis set:
      ------------------
      Associated Effective Charge   1.000000 au
      Associated Actual Charge      1.000000 au
      Nuclear Model: Point charge
 
      Shell  nPrim  nBasis  Cartesian Spherical Contaminant
         s       4       2        X                  
         p       1       1        X                  
--
 
 
++    Molecular structure info:
      -------------------------
 
                    ************************************************ 
                    **** Cartesian Coordinates / Bohr, Angstrom **** 
                    ************************************************ 
 
     Center  Label                x              y              z                     x              y              z
        1      S1               0.000000       0.000000       0.001589              0.000000       0.000000       0.000841
        2      H2               0.000000       1.842103       2.235421              0.000000       0.974799       1.182934
        3      H3               0.000000      -1.842103       2.235421              0.000000      -0.974799       1.182934
 
                    *************************************** 
                    *    InterNuclear Distances / Bohr    * 
                    *************************************** 
 
               1 S1            2 H2            3 H3    
    1 S1       0.000000
    2 H2       2.895401        0.000000
    3 H3       2.895401        3.684206        0.000000
 
                    ******************************************* 
                    *    InterNuclear Distances / Angstrom    * 
                    ******************************************* 
 
               1 S1            2 H2            3 H3    
    1 S1       0.000000
    2 H2       1.532180        0.000000
    3 H3       1.532180        1.949598        0.000000
 
                    ************************************** 
                    *    Valence Bond Angles / Degree    * 
                    ************************************** 
                          Atom centers                 Phi
                      2 H2       1 S1       3 H3        79.02
--
 
 
            Nuclear Potential Energy             11.32343694 au
 
--- Stop Module: gateway at Fri Mar 15 17:04:47 2024 /rc=_RC_ALL_IS_WELL_ ---

--- Start Module: seward at Fri Mar 15 17:04:47 2024 ---
 
()()()()()()()()()()()()()()()()()()()()()()()()()()()()()()()()()()()()()()()()()()()()()()()()()()

                                              &SEWARD

                                   only a single process is used
                       available to each process: 10 GB of memory, 1 thread?
                                            pid: 1055425
()()()()()()()()()()()()()()()()()()()()()()()()()()()()()()()()()()()()()()()()()()()()()()()()()()
 
 RdCtl: keyword DOAN is obsolete and is ignored!
               SEWARD will generate:
                  Multipole Moment integrals up to order  2
                  Kinetic Energy integrals
                  Nuclear Attraction integrals (point charge)
                  One-Electron Hamiltonian integrals
                  Velocity integrals
                  Orbital angular momentum around ( 0.0000  0.0000  0.0000 )
                  Velocity quadrupole around ( 0.0000  0.0000  0.1341 )
                  Atomic mean-field integrals
                  RI decomposed two-electron repulsion integrals stored Cholesky style
                   - acCD auxiliary basis
                   - CD Threshold:   0.10E-03
 
                   Integrals are discarded if absolute value <: 0.10E-13
                   Integral cutoff threshold is set to       <: 0.10E-15
 
            Nuclear Potential Energy             11.32343694 au
 
 
      Basis set specifications :
      Symmetry species         a  
      Basis functions           28
 
 
      Input file to MOLDEN was generated!
 
--- Stop Module: seward at Fri Mar 15 17:04:48 2024 /rc=_RC_ALL_IS_WELL_ ---

*** symbolic link created: INPORB -> MOLCAS.GssOrb
--- Start Module: rasscf at Fri Mar 15 17:04:48 2024 ---
 
()()()()()()()()()()()()()()()()()()()()()()()()()()()()()()()()()()()()()()()()()()()()()()()()()()

                                              &RASSCF

                                   only a single process is used
                       available to each process: 10 GB of memory, 1 thread?
                                            pid: 1055432
()()()()()()()()()()()()()()()()()()()()()()()()()()()()()()()()()()()()()()()()()()()()()()()()()()
 
 
      Header of the ONEINT file:
      --------------------------
      
      Integrals generated by Gateway/Seward, Fri Mar 15 17:04:47 2024
 
 
      OrdInt status: non-squared
 
 
      Cartesian coordinates in Angstrom:
      -----------------------------------------------------
      No.  Label        X            Y            Z        
      -----------------------------------------------------
       1   S1         0.00000000   0.00000000   0.00084100
       2   H2         0.00000000   0.97479900   1.18293400
       3   H3         0.00000000  -0.97479900   1.18293400
      -----------------------------------------------------
      Nuclear repulsion energy =   11.32343694
 
++    Wave function specifications:
      -----------------------------
 
      Number of closed shell electrons          10
      Number of electrons in active shells       8
      Max number of holes in RAS1 space          0
      Max nr of electrons in RAS3 space          0
      Number of inactive orbitals                5
      Number of active orbitals                  6
      Number of secondary orbitals              17
      Spin quantum number                      0.0
      State symmetry                             1
--
 
++    Orbital specifications:
      -----------------------
 
      Symmetry species                           1
                                                 a
      Frozen orbitals                            0
      Inactive orbitals                          5
      Active orbitals                            6
      RAS1 orbitals                              0
      RAS2 orbitals                              6
      RAS3 orbitals                              0
      Secondary orbitals                        17
      Deleted orbitals                           0
      Number of basis functions                 28
--
 
++    CI expansion specifications:
      ----------------------------
 
      Number of CSFs                           105
      Number of determinants                   120
      Number of root(s) required                 4
      CI roots used                              1     2     3     4
      weights                                0.250 0.250 0.250 0.250
      highest root included in the CI            5
      max. size of the explicit Hamiltonian    105
--
 
++    Optimization specifications:
      ----------------------------
 
      RASSCF algorithm: LK RI/DF
      Maximum number of macro iterations       200
      Maximum number of SX iterations          100
      Threshold for RASSCF energy            0.100E-07
      Threshold for max MO rotation          0.100E-03
      Threshold for max BLB element          0.100E-03
      Level shift parameter                  0.500E+00
      Make Quasi-Newton update
--
 
      Orbitals from runfile: guessorb orbitals
      The MO-coefficients are taken from guessorb on runfile
 
      Total molecular charge    0.00
 
      ************************************************************************************************************************
      *                                                                                                                      *
      *                                            Wave function control section                                             *
      *                                                                                                                      *
      ************************************************************************************************************************
 
 
                                         RASSCF iterations: Energy and convergence statistics
                                         ----------------------------------------------------
 
      Iter CI   SX   CI       RASSCF       Energy    max ROT     max BLB   max BLB  Level Ln srch  Step   QN   Walltime
          iter iter root      energy       change     param      element    value   shift minimum  type update hh:mm:ss
 Nr of preliminary CI iterations:   1
        1   1   68    0  -398.43648246    0.00E+00   0.12E+00*   7  18 1  0.16E+00*  0.00   0.00    SX    NO    0:00:00
        2   1   14    0  -398.50214711   -0.66E-01* -0.65E-01*   6  13 1  0.30E-01*  0.00   0.00    SX    NO    0:00:00
        3   1   15    0  -398.50663063   -0.45E-02*  0.40E-01*  11  13 1 -0.13E-01*  0.00   0.00    SX    NO    0:00:00
        4   1   15    0  -398.50793273   -0.13E-02* -0.17E-01*  11  13 1 -0.55E-02*  0.00   0.00    SX    NO    0:00:00
        5   1   14    0  -398.50812944   -0.20E-03* -0.12E-01*  11  13 1 -0.24E-02*  0.00   1.73    LS   YES    0:00:00
        6   1   13    0  -398.50817198   -0.43E-04*  0.10E-02*   8  17 1  0.50E-03*  0.00   1.03    QN   YES    0:00:00
        7   1   11    0  -398.50817367   -0.17E-05*  0.49E-03*   7  13 1 -0.12E-03*  0.00   1.33    QN   YES    0:00:00
        8   1   10    0  -398.50817401   -0.35E-06*  0.16E-02*   7  13 1 -0.24E-03*  0.00   2.12    QN   YES    0:00:00
        9   1   13    0  -398.50817610   -0.21E-05*  0.24E-02*   7  13 1 -0.88E-03*  0.00   2.50    LS   YES    0:00:00
       10   1   14    0  -398.50818144   -0.53E-05*  0.36E-02*   7  13 1 -0.18E-02*  0.00   2.50    LS   YES    0:00:00
       11   1   15    0  -398.50819138   -0.99E-05*  0.23E+00*   7  13 1 -0.27E-02*  0.00   2.08    QN   YES    0:00:00
       12   1  100    0  -398.43844349    0.70E-01*  0.97E-01*   7  13 1  0.11E+00*  0.00   0.00    LS   YES    0:00:00
       13   1   90    0  -398.48541205   -0.47E-01*  0.78E-01*   7  13 1  0.57E-01*  0.00   2.19    LS   YES    0:00:00
       14   1   22    0  -398.50481622   -0.19E-01*  0.40E-01*   7  13 1  0.18E-01*  0.00   1.60    QN   YES    0:00:00
       15   1   17    0  -398.50803577   -0.32E-02* -0.85E-02*   8  21 1 -0.46E-02*  0.00   1.26    QN   YES    0:00:00
       16   1   16    0  -398.50820934   -0.17E-03*  0.97E-02*   7  13 1 -0.29E-02*  0.00   1.44    SX   YES    0:00:00
       17   1   15    0  -398.50835468   -0.15E-03*  0.55E-02*   7  13 1 -0.14E-02*  0.00   1.58    LS   YES    0:00:00
       18   1   15    0  -398.50837758   -0.23E-04*  0.37E-02*   7  18 1 -0.12E-02*  0.00   1.02    QN   YES    0:00:00
       19   1   13    0  -398.50838911   -0.12E-04* -0.13E-02*   8  17 1  0.29E-03*  0.00   1.29    QN   YES    0:00:00
       20   1    9    0  -398.50838999   -0.88E-06* -0.61E-04    3  27 1  0.99E-04   0.00   1.03    QN   YES    0:00:00
       21   1    6    0  -398.50839001   -0.17E-07*  0.21E-04    3  27 1  0.33E-04   0.00   1.26    QN   YES    0:00:00
       22   1    4    0  -398.50839001   -0.12E-08  -0.17E-05    3  27 1 -0.80E-05   0.00   0.94    QN   YES    0:00:00
      Convergence after 22 iterations
       23   1    4    0  -398.50839001   -0.32E-10  -0.17E-05    3  27 1 -0.11E-05   0.00   0.94    QN   YES    0:00:00
 
      ************************************************************************************************************************
                                                      Wave function printout:
                       occupation of active orbitals, and spin coupling of open shells (u,d: Spin up or down)
      ************************************************************************************************************************
 
      Note: transformation to natural orbitals
      has been made, which may change the order of the CSFs.
 
      printout of CI-coefficients larger than  0.05 for root  1
      energy=    -398.693733
      conf/sym  111111     Coeff  Weight
             1  222200  -0.96870 0.93838
            17  2u220d  -0.13604 0.01851
            31  220220   0.13389 0.01793
            52  202202   0.12141 0.01474
 
      printout of CI-coefficients larger than  0.05 for root  2
      energy=    -398.508671
      conf/sym  111111     Coeff  Weight
             2  222ud0   0.60388 0.36467
             4  222u0d  -0.76382 0.58342
             8  22ud20   0.12018 0.01444
            19  2u2udd   0.06213 0.00386
            21  2u2d02   0.11257 0.01267
            33  220u2d  -0.09348 0.00874
            53  202ud2  -0.05907 0.00349
 
      printout of CI-coefficients larger than  0.05 for root  3
      energy=    -398.476527
      conf/sym  111111     Coeff  Weight
             2  222ud0  -0.74141 0.54969
             4  222u0d  -0.60282 0.36339
             8  22ud20  -0.18595 0.03458
            19  2u2udd  -0.07143 0.00510
            21  2u2d02   0.12500 0.01563
            33  220u2d  -0.09777 0.00956
            53  202ud2   0.10931 0.01195
 
      printout of CI-coefficients larger than  0.05 for root  4
      energy=    -398.354629
      conf/sym  111111     Coeff  Weight
             5  2220ud   0.06409 0.00411
             7  22u2d0   0.05609 0.00315
             9  22u20d   0.93679 0.87757
            15  2u22d0  -0.19254 0.03707
            32  2202ud  -0.16686 0.02784
            40  2ud202  -0.13240 0.01753
            44  u2d2ud  -0.08910 0.00794
 
      printout of CI-coefficients larger than  0.05 for root  5
      energy=    -398.341883
      conf/sym  111111     Coeff  Weight
             7  22u2d0  -0.10295 0.01060
             9  22u20d   0.20564 0.04229
            15  2u22d0   0.90564 0.82018
            17  2u220d   0.05150 0.00265
            23  u222d0   0.07901 0.00624
            31  220220  -0.06656 0.00443
            32  2202ud  -0.05789 0.00335
            37  2ud220   0.18500 0.03422
            50  2022ud   0.22890 0.05240
            55  ud2220   0.05485 0.00301
            56  ud22ud  -0.05728 0.00328
            82  20u22d   0.06595 0.00435
 
      Natural orbitals and occupation numbers for root  1
      sym 1:   1.997120   1.962308   1.957111   1.998601   0.052236   0.032623
 
      Natural orbitals and occupation numbers for root  2
      sym 1:   1.998868   1.985146   1.958273   1.000000   0.058606   0.999107
 
      Natural orbitals and occupation numbers for root  3
      sym 1:   1.998722   1.970581   1.936112   1.000000   0.991928   0.102656
 
      Natural orbitals and occupation numbers for root  4
      sym 1:   1.984986   1.943113   1.052035   1.986546   0.079948   0.953371
 
      Natural orbitals and occupation numbers for root  5
      sym 1:   1.987856   1.052545   1.932706   1.993128   0.953541   0.080224
 
      ************************************************************************************************************************
      *                                                                                                                      *
      *                                                    Final results                                                     *
      *                                                                                                                      *
      ************************************************************************************************************************
 
 
++    Wave function specifications:
      -----------------------------
 
      Number of closed shell electrons          10
      Number of electrons in active shells       8
      Max number of holes in RAS1 space          0
      Max nr of electrons in RAS3 space          0
      Number of inactive orbitals                5
      Number of active orbitals                  6
      Number of secondary orbitals              17
      Spin quantum number                      0.0
      State symmetry                             1
--
 
++    Orbital specifications:
      -----------------------
 
      Symmetry species                           1
                                                 a
      Frozen orbitals                            0
      Inactive orbitals                          5
      Active orbitals                            6
      RAS1 orbitals                              0
      RAS2 orbitals                              6
      RAS3 orbitals                              0
      Secondary orbitals                        17
      Deleted orbitals                           0
      Number of basis functions                 28
--
 
++    CI expansion specifications:
      ----------------------------
 
      Number of CSFs                           105
      Number of determinants                   120
      Number of root(s) required                 4
      CI roots used                              1     2     3     4
      weights                                0.250 0.250 0.250 0.250
      highest root included in the CI            5
      Root passed to geometry opt.               1
--
 
++    Final optimization conditions:
      ------------------------------
 
      Average CI energy                            -398.50839001
      RASSCF energy for state  1                   -398.69373310
      Super-CI energy                                -0.00000000
      RASSCF energy change                           -0.00000000
      Max change in MO coefficients              -0.306E-05
      Max non-diagonal density matrix element    -0.171E-05
      Maximum BLB matrix element                 -0.107E-05
      (orbital pair   3,  27 in symmetry   1)
      Norm of electronic gradient            0.574E-01
--
 
 
      Final state energy(ies):
      ------------------------
 
::    RASSCF root number  1 Total energy:   -398.69373310
::    RASSCF root number  2 Total energy:   -398.50867090
::    RASSCF root number  3 Total energy:   -398.47652741
::    RASSCF root number  4 Total energy:   -398.35462862
::    RASSCF root number  5 Total energy:   -398.34188304
 
++    Molecular orbitals:
      -------------------
 
      Pseudonatural active orbitals and approximate occupation numbers
 
 
 
 
      Molecular orbitals for symmetry species 1: a  
 
 
      Orbital                 1         2         3         4         5         6         7         8         9        10
      Energy           -92.0114   -9.0113   -6.6909   -6.6899   -6.6895   -0.9162    0.0071    0.0000    0.0105   -0.0136
      Occ. No.           2.0000    2.0000    2.0000    2.0000    2.0000    1.9906    1.9503    1.7207    1.4963    0.3132
 
     1 S1     1s         1.0000    0.0002    0.0000    0.0000    0.0000    0.0008    0.0012    0.0010   -0.0000    0.0029
     2 S1     2s         0.0001    1.0012   -0.0021   -0.0019    0.0000    0.0070    0.0043    0.0027   -0.0000    0.0119
     3 S1     3s         0.0003    0.0007    0.0022    0.0023   -0.0000    0.9496   -0.1378   -0.2347   -0.0000   -0.2362
     4 S1     *s        -0.0002   -0.0050   -0.0012   -0.0010   -0.0000   -0.0374   -0.0796   -0.0885    0.0000   -0.3664
     5 S1     2px       -0.0000    0.0000    0.0000    0.0000    1.0000    0.0000   -0.0000   -0.0000   -0.0027    0.0000
     6 S1     3px       -0.0000    0.0000    0.0000   -0.0000    0.0001    0.0000   -0.0000    0.0000    0.9753    0.0000
     7 S1     *px        0.0000   -0.0000   -0.0000    0.0000    0.0004   -0.0000    0.0000    0.0000    0.0232   -0.0000
     8 S1     2py       -0.0000    0.0000   -0.6707    0.7417   -0.0000    0.0002   -0.0050    0.0047    0.0000    0.0081
     9 S1     3py       -0.0000    0.0006   -0.0012    0.0006   -0.0000   -0.0231    0.5736   -0.4773    0.0000    0.5492
    10 S1     *py        0.0000   -0.0001    0.0007    0.0001    0.0000    0.0017   -0.0639    0.0629   -0.0000    0.1586
    11 S1     2pz        0.0000    0.0035    0.7418    0.6706   -0.0000   -0.0051   -0.0056   -0.0064   -0.0000   -0.0109
    12 S1     3pz        0.0000    0.0025    0.0015    0.0007   -0.0000    0.0692    0.5189    0.5594    0.0000   -0.5309
    13 S1     *pz       -0.0001   -0.0031   -0.0008    0.0001   -0.0000   -0.0273   -0.0431   -0.0552    0.0000   -0.1904
    14 S1     *d2-      -0.0000   -0.0000   -0.0000    0.0000    0.0000   -0.0000   -0.0000   -0.0000   -0.0014    0.0000
    15 S1     *d1-      -0.0000   -0.0000   -0.0003    0.0003   -0.0000   -0.0036    0.0457   -0.0412    0.0000   -0.0873
    16 S1     *d0       -0.0000    0.0001    0.0003    0.0002   -0.0000    0.0068    0.0207    0.0226   -0.0000    0.0144
    17 S1     *d1+       0.0000   -0.0000    0.0000    0.0000    0.0002   -0.0000   -0.0000    0.0000    0.0147   -0.0000
    18 S1     *d2+      -0.0000   -0.0001   -0.0001   -0.0001    0.0000   -0.0066   -0.0101   -0.0138    0.0000   -0.0076
    19 H2     1s         0.0000    0.0000    0.0005    0.0016   -0.0000    0.1729    0.5709   -0.0128   -0.0000   -0.0991
    20 H2     *s         0.0001    0.0020   -0.0002   -0.0006    0.0000   -0.0866   -0.1219   -0.0139    0.0000    0.1224
    21 H2     *px       -0.0000    0.0000   -0.0000   -0.0000   -0.0000    0.0000   -0.0000    0.0000    0.0111    0.0000
    22 H2     *py        0.0000    0.0004   -0.0000   -0.0001    0.0000   -0.0114   -0.0164   -0.0072    0.0000    0.0094
    23 H2     *pz        0.0000    0.0004   -0.0001   -0.0001    0.0000   -0.0123   -0.0189    0.0069   -0.0000    0.0039
    24 H3     1s         0.0000   -0.0008    0.0013    0.0004   -0.0000    0.2177   -0.0745    0.6235   -0.0000    0.8140
    25 H3     *s         0.0001    0.0021   -0.0003   -0.0002    0.0000   -0.0973   -0.0031   -0.1291   -0.0000    0.4556
    26 H3     *px       -0.0000   -0.0000   -0.0000   -0.0000    0.0000   -0.0000   -0.0000    0.0000    0.0148    0.0000
    27 H3     *py       -0.0000   -0.0004    0.0000    0.0000   -0.0000    0.0122    0.0085    0.0167   -0.0000   -0.0057
    28 H3     *pz        0.0000    0.0005   -0.0001   -0.0000    0.0000   -0.0142    0.0095   -0.0187    0.0000    0.0133
 
 
      Orbital                11
      Energy             0.0089
      Occ. No.           0.5289
 
     1 S1     1s         0.0041
     2 S1     2s         0.0207
     3 S1     3s        -0.2205
     4 S1     *s        -0.4270
     5 S1     2px        0.0000
     6 S1     3px        0.0000
     7 S1     *px       -0.0000
     8 S1     2py       -0.0042
     9 S1     3py       -0.4808
    10 S1     *py       -0.2187
    11 S1     2pz       -0.0082
    12 S1     3pz       -0.4736
    13 S1     *pz       -0.2412
    14 S1     *d2-       0.0000
    15 S1     *d1-       0.0760
    16 S1     *d0        0.0101
    17 S1     *d1+       0.0000
    18 S1     *d2+      -0.0205
    19 H2     1s         0.7288
    20 H2     *s         0.6207
    21 H2     *px        0.0000
    22 H2     *py        0.0068
    23 H2     *pz        0.0157
    24 H3     1s        -0.0853
    25 H3     *s         0.1027
    26 H3     *px       -0.0000
    27 H3     *py       -0.0072
    28 H3     *pz        0.0014
--
 
      Von Neumann Entropy (Root   1) =  0.29483
 

      Mulliken population analysis for root number:  1
      -----------------------------------------------
 
 
++    Molecular charges:
      ------------------
 
      Mulliken charges per centre and basis function type
      ---------------------------------------------------
 
                S1      H2      H3    
      1s       2.0000  1.0858  1.1335
      2s       2.0024  0.0000  0.0000
      2px      1.9999  0.0000  0.0000
      2pz      2.0000  0.0000  0.0000
      2py      2.0001  0.0000  0.0000
      3s       1.9432  0.0000  0.0000
      3px      1.9483  0.0000  0.0000
      3pz      1.3199  0.0000  0.0000
      3py      1.2007  0.0000  0.0000
      *s      -0.0659 -0.1528 -0.2231
      *px      0.0417  0.0034  0.0047
      *pz     -0.1544  0.0098  0.0109
      *py     -0.1728  0.0074  0.0081
      *d2+     0.0036  0.0000  0.0000
      *d1+     0.0006  0.0000  0.0000
      *d0      0.0073  0.0000  0.0000
      *d1-     0.0377  0.0000  0.0000
      *d2-     0.0000  0.0000  0.0000
      Total   16.1124  0.9535  0.9341
 
      N-E     -0.1124  0.0465  0.0659
 
      Total electronic charge=   18.000000
 
      Total            charge=   -0.000000
--
 
 

      Expectation values of various properties for root number:  1
      -----------------------------------------------------------
 
 
++    Molecular properties:
      ---------------------
 
      Charge (e):
                      =   -0.0000
      Dipole Moment (Debye):
      Origin of the operator (Ang)=    0.0000    0.0000    0.0000
                   X= -6.5800E-11               Y= -3.9736E-02               Z=  9.6181E-01           Total=  9.6263E-01
      Quadrupole Moment (Debye*Ang):
      Origin of the operator (Ang)=    0.0000    0.0000    0.0709
                  XX= -1.6701E+01              XY=  3.2885E-11              XZ= -4.0483E-11              YY= -1.3324E+01
                  YZ= -6.6388E-02              ZZ= -1.3053E+01
      In traceless form (Debye*Ang)
                  XX= -3.5125E+00              XY=  4.9328E-11              XZ= -6.0725E-11              YY=  1.5532E+00
                  YZ= -9.9583E-02              ZZ=  1.9593E+00
--
 
      Von Neumann Entropy (Root   2) =  1.19071
 

      Mulliken population analysis for root number:  2
      -----------------------------------------------
 
 
++    Molecular charges:
      ------------------
 
      Mulliken charges per centre and basis function type
      ---------------------------------------------------
 
                S1      H2      H3    
      1s       2.0000  1.1603  1.1793
      2s       2.0024  0.0000  0.0000
      2px      1.9999  0.0000  0.0000
      2pz      2.0000  0.0000  0.0000
      2py      2.0001  0.0000  0.0000
      3s       1.9537  0.0000  0.0000
      3px      0.9749  0.0000  0.0000
      3pz      1.4150  0.0000  0.0000
      3py      1.7292  0.0000  0.0000
      *s      -0.0512 -0.1044 -0.2171
      *px      0.0209  0.0017  0.0023
      *pz     -0.1270  0.0135  0.0132
      *py     -0.0649  0.0083  0.0086
      *d2+     0.0034  0.0000  0.0000
      *d1+     0.0003  0.0000  0.0000
      *d0      0.0067  0.0000  0.0000
      *d1-     0.0708  0.0000  0.0000
      *d2-     0.0000  0.0000  0.0000
      Total   15.9342  1.0794  0.9864
 
      N-E      0.0658 -0.0794  0.0136
 
      Total electronic charge=   18.000000
 
      Total            charge=   -0.000000
--
 
 

      Expectation values of various properties for root number:  2
      -----------------------------------------------------------
 
 
++    Molecular properties:
      ---------------------
 
      Charge (e):
                      =   -0.0000
      Dipole Moment (Debye):
      Origin of the operator (Ang)=    0.0000    0.0000    0.0000
                   X=  8.7749E-11               Y= -3.8993E-01               Z=  1.1559E-01           Total=  4.0670E-01
      Quadrupole Moment (Debye*Ang):
      Origin of the operator (Ang)=    0.0000    0.0000    0.0709
                  XX= -1.3958E+01              XY=  3.9911E-11              XZ= -2.5323E-11              YY= -1.6696E+01
                  YZ= -1.0735E+00              ZZ= -1.6221E+01
      In traceless form (Debye*Ang)
                  XX=  2.4998E+00              XY=  5.9867E-11              XZ= -3.7985E-11              YY= -1.6061E+00
                  YZ= -1.6103E+00              ZZ= -8.9371E-01
--
 
      Von Neumann Entropy (Root   3) =  1.28899
 

      Mulliken population analysis for root number:  3
      -----------------------------------------------
 
 
++    Molecular charges:
      ------------------
 
      Mulliken charges per centre and basis function type
      ---------------------------------------------------
 
                S1      H2      H3    
      1s       2.0000  1.0786  1.1734
      2s       2.0024  0.0000  0.0000
      2px      1.9999  0.0000  0.0000
      2pz      2.0000  0.0000  0.0000
      2py      2.0001  0.0000  0.0000
      3s       1.9816  0.0000  0.0000
      3px      0.9749  0.0000  0.0000
      3pz      1.7144  0.0000  0.0000
      3py      1.3807  0.0000  0.0000
      *s      -0.0728 -0.0381 -0.1081
      *px      0.0209  0.0017  0.0023
      *pz     -0.0754  0.0139  0.0154
      *py     -0.1342  0.0111  0.0113
      *d2+     0.0052  0.0000  0.0000
      *d1+     0.0003  0.0000  0.0000
      *d0      0.0085  0.0000  0.0000
      *d1-     0.0318  0.0000  0.0000
      *d2-     0.0000  0.0000  0.0000
      Total   15.8382  1.0673  1.0945
 
      N-E      0.1618 -0.0673 -0.0945
 
      Total electronic charge=   18.000000
 
      Total            charge=   -0.000000
--
 
 

      Expectation values of various properties for root number:  3
      -----------------------------------------------------------
 
 
++    Molecular properties:
      ---------------------
 
      Charge (e):
                      =   -0.0000
      Dipole Moment (Debye):
      Origin of the operator (Ang)=    0.0000    0.0000    0.0000
                   X=  2.8156E-11               Y=  1.4660E-01               Z= -1.0023E+00           Total=  1.0129E+00
      Quadrupole Moment (Debye*Ang):
      Origin of the operator (Ang)=    0.0000    0.0000    0.0709
                  XX= -1.4331E+01              XY=  3.2689E-12              XZ= -7.8352E-11              YY= -1.6686E+01
                  YZ=  5.3837E-01              ZZ= -1.8348E+01
      In traceless form (Debye*Ang)
                  XX=  3.1854E+00              XY=  4.9033E-12              XZ= -1.1753E-10              YY= -3.4604E-01
                  YZ=  8.0756E-01              ZZ= -2.8394E+00
--
 
      Von Neumann Entropy (Root   4) =  1.24363
 

      Mulliken population analysis for root number:  4
      -----------------------------------------------
 
 
++    Molecular charges:
      ------------------
 
      Mulliken charges per centre and basis function type
      ---------------------------------------------------
 
                S1      H2      H3    
      1s       2.0000  1.1873  0.8458
      2s       2.0024  0.0000  0.0000
      2px      1.9999  0.0000  0.0000
      2pz      2.0000  0.0000  0.0000
      2py      2.0001  0.0000  0.0000
      3s       1.9016  0.0000  0.0000
      3px      1.9366  0.0000  0.0000
      3pz      1.1443  0.0000  0.0000
      3py      1.1617  0.0000  0.0000
      *s      -0.0797  0.0191 -0.1165
      *px      0.0414  0.0034  0.0047
      *pz     -0.0701  0.0160  0.0086
      *py     -0.0812  0.0097  0.0075
      *d2+     0.0043  0.0000  0.0000
      *d1+     0.0005  0.0000  0.0000
      *d0      0.0062  0.0000  0.0000
      *d1-     0.0461  0.0000  0.0000
      *d2-     0.0000  0.0000  0.0000
      Total   16.0143  1.2355  0.7502
 
      N-E     -0.0143 -0.2355  0.2498
 
      Total electronic charge=   18.000000
 
      Total            charge=   -0.000000
--
 
 

      Expectation values of various properties for root number:  4
      -----------------------------------------------------------
 
 
++    Molecular properties:
      ---------------------
 
      Charge (e):
                      =   -0.0000
      Dipole Moment (Debye):
      Origin of the operator (Ang)=    0.0000    0.0000    0.0000
                   X=  1.4388E-10               Y= -1.8941E+00               Z= -2.2999E-01           Total=  1.9080E+00
      Quadrupole Moment (Debye*Ang):
      Origin of the operator (Ang)=    0.0000    0.0000    0.0709
                  XX= -1.7029E+01              XY=  2.6718E-11              XZ= -7.4387E-11              YY= -1.5530E+01
                  YZ= -5.4421E+00              ZZ= -1.5865E+01
      In traceless form (Debye*Ang)
                  XX= -1.3314E+00              XY=  4.0077E-11              XZ= -1.1158E-10              YY=  9.1627E-01
                  YZ= -8.1631E+00              ZZ=  4.1508E-01
--
 
      Von Neumann Entropy (Root   5) =  1.24439
 

      Mulliken population analysis for root number:  5
      -----------------------------------------------
 
 
++    Molecular charges:
      ------------------
 
      Mulliken charges per centre and basis function type
      ---------------------------------------------------
 
                S1      H2      H3    
      1s       2.0000  0.7958  1.2551
      2s       2.0024  0.0000  0.0000
      2px      1.9999  0.0000  0.0000
      2pz      2.0000  0.0000  0.0000
      2py      2.0001  0.0000  0.0000
      3s       1.9269  0.0000  0.0000
      3px      1.9430  0.0000  0.0000
      3pz      1.1574  0.0000  0.0000
      3py      1.1664  0.0000  0.0000
      *s      -0.0698 -0.0539 -0.0966
      *px      0.0416  0.0034  0.0047
      *pz     -0.0844  0.0079  0.0157
      *py     -0.0935  0.0071  0.0094
      *d2+     0.0035  0.0000  0.0000
      *d1+     0.0005  0.0000  0.0000
      *d0      0.0065  0.0000  0.0000
      *d1-     0.0507  0.0000  0.0000
      *d2-     0.0000  0.0000  0.0000
      Total   16.0512  0.7604  1.1884
 
      N-E     -0.0512  0.2396 -0.1884
 
      Total electronic charge=   18.000000
 
      Total            charge=   -0.000000
--
 
 

      Expectation values of various properties for root number:  5
      -----------------------------------------------------------
 
 
++    Molecular properties:
      ---------------------
 
      Charge (e):
                      =   -0.0000
      Dipole Moment (Debye):
      Origin of the operator (Ang)=    0.0000    0.0000    0.0000
                   X= -2.1616E-10               Y=  1.6668E+00               Z=  1.2780E-01           Total=  1.6717E+00
      Quadrupole Moment (Debye*Ang):
      Origin of the operator (Ang)=    0.0000    0.0000    0.0709
                  XX= -1.6924E+01              XY=  5.9434E-11              XZ= -2.0063E-11              YY= -1.5046E+01
                  YZ=  4.9177E+00              ZZ= -1.5315E+01
      In traceless form (Debye*Ang)
                  XX= -1.7433E+00              XY=  8.9151E-11              XZ= -3.0094E-11              YY=  1.0739E+00
                  YZ=  7.3765E+00              ZZ=  6.6939E-01
--
 
 
      Input file to MOLDEN was generated!
 
 
      Input file to MOLDEN was generated!
 
 
      Input file to MOLDEN was generated!
 
 
      Input file to MOLDEN was generated!
 
 
      Input file to MOLDEN was generated!
 
      Average orbitals are written to the RASORB file
      Natural orbitals for root   1 are written to the RASORB.1 file
      Natural orbitals for root   2 are written to the RASORB.2 file
      Natural orbitals for root   3 are written to the RASORB.3 file
      Natural orbitals for root   4 are written to the RASORB.4 file
      Natural orbitals for root   5 are written to the RASORB.5 file
      Spin density orbitals for root   1 are written to the SPDORB.1 file
      Spin density orbitals for root   2 are written to the SPDORB.2 file
      Spin density orbitals for root   3 are written to the SPDORB.3 file
      Spin density orbitals for root   4 are written to the SPDORB.4 file
      Spin density orbitals for root   5 are written to the SPDORB.5 file
 
 ###############################################################################
 ###############################################################################
 ###                                                                         ###
 ###                                                                         ###
 ###    WARNING: RunFile label BirthCertificate                              ###
 ###    was used       43 times                                              ###
 ###                                                                         ###
 ###                                                                         ###
 ###############################################################################
 ###############################################################################
--- Stop Module: rasscf at Fri Mar 15 17:04:52 2024 /rc=_RC_ALL_IS_WELL_ ---
--- Module rasscf spent 3 seconds ---

>>> COPY MOLCAS.rasscf.molden MOLCAS.1.molden

*** symbolic link created: INPORB -> MOLCAS.RasOrb
--- Start Module: caspt2 at Fri Mar 15 17:04:52 2024 ---
 
()()()()()()()()()()()()()()()()()()()()()()()()()()()()()()()()()()()()()()()()()()()()()()()()()()

                                              &CASPT2

                                   only a single process is used
                       available to each process: 10 GB of memory, 1 thread?
                                            pid: 1055485
()()()()()()()()()()()()()()()()()()()()()()()()()()()()()()()()()()()()()()()()()()()()()()()()()()
 
 
++    Wave function specifications:
      -----------------------------
 
      Number of closed shell electrons           0
      Number of electrons in active shells       8
      Max number of holes in RAS1 space          0
      Max number of electrons in RAS3 space      0
      Number of inactive orbitals                0
      Number of active orbitals                  6
      Number of secondary orbitals              17
      Spin quantum number                      0.0
      State symmetry                             1
      Number of CSFs                           105
      Number of CASSCF root(s) available         4
      CASPT2 state passed to geometry opt.       1
      A file JOBMIX will be created
      This is a MULTI-STATE CASSCF reference
      Number of CI roots used                    4
      These are:                                 1   2   3   4
      Off-diagonal elements of Heff are computed
--
 
++    Orbital specifications:
      -----------------------
 
      Symmetry species                           1
                                                 a
      Frozen orbitals                            5
      Inactive orbitals                          0
      Active orbitals                            6
      Secondary orbitals                        17
      Deleted orbitals                           0
      Number of basis functions                 28
--
 
++    CASPT2 specifications:
      ----------------------
 
      Type of calculation                        XMS-CASPT2
      Fock operator                              state-average
      IPEA shift                                 0.00
      Real shift                                 0.00
      Imaginary shift                            0.00
      The input orbitals will be transformed to quasi-canonical
      The input states will be rotated to diagonalize the Fock operator
--
 
--------------------------------------------------------------------------------
 Estimated memory requirements:
  POLY3 :                   257654
  RHS:                      259460
  SIGMA :                   264688
  PRPCTL:                        0
 Available workspace:   1124990510
 
++ CASPT2 computation for group   1
 
********************************************************************************
 Multi-State initialization phase begins for group   1
--------------------------------------------------------------------------------
 
  H0 in the original model space basis:
                1               2               3               4
   1       -4.48750565     -0.00000000      0.00000000      0.01491921
   2       -0.00000000     -4.12315892     -0.01623937      0.00000000
   3        0.00000000     -0.01623937     -4.06970360     -0.00000000
   4        0.01491921      0.00000000     -0.00000000     -3.94531421
 
  H0 eigenvectors:
                1               2               3               4
   1        0.99962221      0.00000000      0.00000000      0.02748531
   2        0.00000000      0.96296916     -0.26961157      0.00000000
   3       -0.00000000      0.26961157      0.96296916     -0.00000000
   4       -0.02748531     -0.00000000      0.00000000      0.99962221
 
********************************************************************************
 Compute H0 matrices for state    1
--------------------------------------------------------------------------------
--------------------------------------------------------------------------------
 H0 matrices have been computed.
 
********************************************************************************
  CASPT2 EQUATION SOLUTION
--------------------------------------------------------------------------------
 
  Total nr of CASPT2 parameters:
   Before reduction:        8925
   After  reduction:        8466
 
 Variance of |WF0>:       0.3200234416
 
 The contributions to the second order correlation energy in atomic units.
-----------------------------------------------------------------------------------------------------------------------------
  IT.      VJTU        VJTI        ATVX        AIVX        VJAI        BVAT        BJAT        BJAI        TOTAL       RNORM  
-----------------------------------------------------------------------------------------------------------------------------
   1     0.000000    0.000000   -0.046324    0.000000    0.000000   -0.085087    0.000000    0.000000   -0.131411    0.000716
   2     0.000000    0.000000   -0.046401    0.000000    0.000000   -0.085090    0.000000    0.000000   -0.131490    0.000031
   3     0.000000    0.000000   -0.046402    0.000000    0.000000   -0.085090    0.000000    0.000000   -0.131492    0.000001
-----------------------------------------------------------------------------------------------------------------------------
 
  FINAL CASPT2 RESULT:
 
      Reference energy:        -398.6937331042
      E2 (Non-variational):      -0.1314920613
      E2 (Variational):          -0.1314920591
      Total energy:            -398.8252251633
      Residual norm:              0.0000000620
      Reference weight:           0.94490
 
      Contributions to the CASPT2 correlation energy
      Active & Virtual Only:         -0.1314920613
      One Inactive Excited:           0.0000000000
      Two Inactive Excited:           0.0000000000
 
 
++ Denominators, etc.
--------------------------------------------------------------------------------------------------------------
 Report on small energy denominators, large coefficients, and large energy contributions.
CASE  SYMM ACTIVE-MIX  NON-ACTIVE INDICES          DENOMINATOR     RHS VALUE       COEFFICIENT     CONTRIBUTION
ATVX     1  Mu1.0019  Se1.013                       1.58255810     -0.04328679      0.02674872     -0.00115787
ATVX     1  Mu1.0001  Se1.015                       0.93541356     -0.02469089      0.02502004     -0.00061777
ATVX     1  Mu1.0008  Se1.015                       1.49952570      0.04685796     -0.03050958     -0.00142962
ATVX     1  Mu1.0010  Se1.015                       1.50735122      0.04165909     -0.02651638     -0.00110465
ATVX     1  Mu1.0017  Se1.016                       1.71149873     -0.04670859      0.02720876     -0.00127088
ATVX     1  Mu1.0010  Se1.018                       1.59335464      0.04973956     -0.03087520     -0.00153572
ATVX     1  Mu1.0006  Se1.019                       1.57052441     -0.04025870      0.02563940     -0.00103221
ATVX     1  Mu1.0008  Se1.019                       1.59959204      0.04944278     -0.03072804     -0.00151928
ATVX     1  Mu1.0031  Se1.019                       2.04631514      0.05436873     -0.02630122     -0.00142996
BVATP    1  Mu1.0001  Se1.015 Se1.015               1.97135425      0.07401392     -0.03725929     -0.00275771
BVATP    1  Mu1.0001  Se1.018 Se1.018               2.14336109      0.07687296     -0.03586526     -0.00275707
BVATP    1  Mu1.0001  Se1.019 Se1.019               2.17148693      0.07747491     -0.03567522     -0.00276393
BVATP    1  Mu1.0001  Se1.020 Se1.013               1.97604828      0.04951401     -0.02537772     -0.00125655
BVATM    1  Mu1.0001  Se1.018 Se1.013               2.09996377      0.06364949     -0.02969602     -0.00189014
BVATM    1  Mu1.0002  Se1.019 Se1.013               2.13904399      0.06329413     -0.02924397     -0.00185097
--
 
   (Skipping property calculation,
    use PROP keyword to activate)
********************************************************************************
 Compute H0 matrices for state    2
--------------------------------------------------------------------------------
--------------------------------------------------------------------------------
 H0 matrices have been computed.
 
********************************************************************************
  CASPT2 EQUATION SOLUTION
--------------------------------------------------------------------------------
 
  Total nr of CASPT2 parameters:
   Before reduction:        8925
   After  reduction:        7820
 
 Variance of |WF0>:       0.3178519853
 
 The contributions to the second order correlation energy in atomic units.
-----------------------------------------------------------------------------------------------------------------------------
  IT.      VJTU        VJTI        ATVX        AIVX        VJAI        BVAT        BJAT        BJAI        TOTAL       RNORM  
-----------------------------------------------------------------------------------------------------------------------------
   1     0.000000    0.000000   -0.056543    0.000000    0.000000   -0.080288    0.000000    0.000000   -0.136831    0.000981
   2     0.000000    0.000000   -0.056645    0.000000    0.000000   -0.080307    0.000000    0.000000   -0.136951    0.000056
   3     0.000000    0.000000   -0.056647    0.000000    0.000000   -0.080307    0.000000    0.000000   -0.136955    0.000003
-----------------------------------------------------------------------------------------------------------------------------
 
  FINAL CASPT2 RESULT:
 
      Reference energy:        -398.5086709038
      E2 (Non-variational):      -0.1369543863
      E2 (Variational):          -0.1369543802
      Total energy:            -398.6456252840
      Residual norm:              0.0000001604
      Reference weight:           0.93769
 
      Contributions to the CASPT2 correlation energy
      Active & Virtual Only:         -0.1369543863
      One Inactive Excited:           0.0000000000
      Two Inactive Excited:           0.0000000000
 
 
++ Denominators, etc.
--------------------------------------------------------------------------------------------------------------
 Report on small energy denominators, large coefficients, and large energy contributions.
CASE  SYMM ACTIVE-MIX  NON-ACTIVE INDICES          DENOMINATOR     RHS VALUE       COEFFICIENT     CONTRIBUTION
ATVX     1  Mu1.0030  Se1.013                       1.47745225      0.05758295     -0.03856225     -0.00222053
ATVX     1  Mu1.0031  Se1.013                       1.47745225     -0.04428263      0.03013721     -0.00133455
ATVX     1  Mu1.0037  Se1.016                       1.72635853     -0.04822067      0.02797262     -0.00134886
ATVX     1  Mu1.0001  Se1.017                       0.63825901      0.02574112     -0.03952165     -0.00101733
ATVX     1  Mu1.0052  Se1.018                       1.84612031      0.05798786     -0.03133297     -0.00181693
ATVX     1  Mu1.0054  Se1.019                       1.89653537      0.07077659     -0.03723874     -0.00263563
ATVX     1  Mu1.0007  Se1.020                       1.21942264     -0.03118689      0.02542578     -0.00079295
ATVX     1  Mu1.0031  Se1.020                       1.69287047     -0.04399223      0.02631596     -0.00115770
ATVX     1  Mu1.0009  Se1.021                       1.52564484      0.06220734     -0.04023656     -0.00250301
ATVX     1  Mu1.0009  Se1.022                       1.56484901      0.05902304     -0.03720663     -0.00219605
--
 
   (Skipping property calculation,
    use PROP keyword to activate)
********************************************************************************
 Compute H0 matrices for state    3
--------------------------------------------------------------------------------
--------------------------------------------------------------------------------
 H0 matrices have been computed.
 
********************************************************************************
  CASPT2 EQUATION SOLUTION
--------------------------------------------------------------------------------
 
  Total nr of CASPT2 parameters:
   Before reduction:        8925
   After  reduction:        7820
 
 Variance of |WF0>:       0.3189658516
 
 The contributions to the second order correlation energy in atomic units.
-----------------------------------------------------------------------------------------------------------------------------
  IT.      VJTU        VJTI        ATVX        AIVX        VJAI        BVAT        BJAT        BJAI        TOTAL       RNORM  
-----------------------------------------------------------------------------------------------------------------------------
   1     0.000000    0.000000   -0.064962    0.000000    0.000000   -0.081550    0.000000    0.000000   -0.146512    0.001235
   2     0.000000    0.000000   -0.065090    0.000000    0.000000   -0.081587    0.000000    0.000000   -0.146677    0.000064
   3     0.000000    0.000000   -0.065092    0.000000    0.000000   -0.081589    0.000000    0.000000   -0.146681    0.000003
-----------------------------------------------------------------------------------------------------------------------------
 
  FINAL CASPT2 RESULT:
 
      Reference energy:        -398.4765274069
      E2 (Non-variational):      -0.1466811251
      E2 (Variational):          -0.1466811143
      Total energy:            -398.6232085212
      Residual norm:              0.0000002377
      Reference weight:           0.91937
 
      Contributions to the CASPT2 correlation energy
      Active & Virtual Only:         -0.1466811251
      One Inactive Excited:           0.0000000000
      Two Inactive Excited:           0.0000000000
 
 
++ Denominators, etc.
--------------------------------------------------------------------------------------------------------------
 Report on small energy denominators, large coefficients, and large energy contributions.
CASE  SYMM ACTIVE-MIX  NON-ACTIVE INDICES          DENOMINATOR     RHS VALUE       COEFFICIENT     CONTRIBUTION
ATVX     1  Mu1.0001  Se1.012                       0.34190625     -0.02094733      0.06107752     -0.00127941
ATVX     1  Mu1.0011  Se1.012                       0.91346278     -0.02580243      0.02527786     -0.00065223
ATVX     1  Mu1.0001  Se1.013                       0.40707844     -0.04302297      0.10454972     -0.00449804
ATVX     1  Mu1.0011  Se1.013                       0.97863497     -0.02614990      0.02551721     -0.00066727
ATVX     1  Mu1.0034  Se1.013                       1.45208280      0.05920033     -0.04060143     -0.00240362
ATVX     1  Mu1.0047  Se1.013                       1.57204846     -0.04370653      0.02739310     -0.00119726
ATVX     1  Mu1.0001  Se1.014                       0.48957605      0.02375312     -0.04791625     -0.00113816
ATVX     1  Mu1.0041  Se1.016                       1.70098909     -0.05126119      0.03013136     -0.00154457
ATVX     1  Mu1.0001  Se1.017                       0.57571032     -0.02058683      0.03532946     -0.00072732
ATVX     1  Mu1.0002  Se1.018                       0.76815523      0.02339241     -0.03004807     -0.00070290
ATVX     1  Mu1.0005  Se1.018                       1.01069327     -0.02934353      0.02814742     -0.00082594
ATVX     1  Mu1.0052  Se1.018                       1.83592044      0.06473525     -0.03518100     -0.00227745
ATVX     1  Mu1.0003  Se1.019                       0.80989411     -0.02256678      0.02751950     -0.00062103
ATVX     1  Mu1.0053  Se1.019                       1.87675416      0.05277859     -0.02806659     -0.00148132
ATVX     1  Mu1.0034  Se1.020                       1.66750102      0.06732265     -0.04027615     -0.00271150
ATVX     1  Mu1.0010  Se1.021                       1.47075729     -0.05061207      0.03366858     -0.00170404
ATVX     1  Mu1.0010  Se1.022                       1.50996146      0.04834788     -0.03139263     -0.00151777
BVATP    1  Mu1.0007  Se1.016 Se1.016               2.37044587     -0.06063111      0.02554884     -0.00154905
--
 
   (Skipping property calculation,
    use PROP keyword to activate)
********************************************************************************
 Compute H0 matrices for state    4
--------------------------------------------------------------------------------
--------------------------------------------------------------------------------
 H0 matrices have been computed.
 
********************************************************************************
  CASPT2 EQUATION SOLUTION
--------------------------------------------------------------------------------
 
  Total nr of CASPT2 parameters:
   Before reduction:        8925
   After  reduction:        8466
 
 Variance of |WF0>:       0.3114678377
 
 The contributions to the second order correlation energy in atomic units.
-----------------------------------------------------------------------------------------------------------------------------
  IT.      VJTU        VJTI        ATVX        AIVX        VJAI        BVAT        BJAT        BJAI        TOTAL       RNORM  
-----------------------------------------------------------------------------------------------------------------------------
   1     0.000000    0.000000   -0.054535    0.000000    0.000000   -0.087404    0.000000    0.000000   -0.141939    0.000969
   2     0.000000    0.000000   -0.054637    0.000000    0.000000   -0.087436    0.000000    0.000000   -0.142073    0.000055
   3     0.000000    0.000000   -0.054639    0.000000    0.000000   -0.087437    0.000000    0.000000   -0.142075    0.000003
-----------------------------------------------------------------------------------------------------------------------------
 
  FINAL CASPT2 RESULT:
 
      Reference energy:        -398.3546286206
      E2 (Non-variational):      -0.1420750655
      E2 (Variational):          -0.1420750601
      Total energy:            -398.4967036807
      Residual norm:              0.0000002031
      Reference weight:           0.92997
 
      Contributions to the CASPT2 correlation energy
      Active & Virtual Only:         -0.1420750655
      One Inactive Excited:           0.0000000000
      Two Inactive Excited:           0.0000000000
 
 
++ Denominators, etc.
--------------------------------------------------------------------------------------------------------------
 Report on small energy denominators, large coefficients, and large energy contributions.
CASE  SYMM ACTIVE-MIX  NON-ACTIVE INDICES          DENOMINATOR     RHS VALUE       COEFFICIENT     CONTRIBUTION
ATVX     1  Mu1.0001  Se1.012                       0.22224718      0.00000000     -0.00000000     -0.00000000
ATVX     1  Mu1.0047  Se1.012                       1.38878566      0.04560646     -0.03267409     -0.00149015
ATVX     1  Mu1.0001  Se1.013                       0.28741938      0.00000000      0.00000000      0.00000000
ATVX     1  Mu1.0002  Se1.013                       0.44613274     -0.01230793      0.02725480     -0.00033545
ATVX     1  Mu1.0003  Se1.016                       0.63410958      0.01793853     -0.02807461     -0.00050362
ATVX     1  Mu1.0052  Se1.016                       1.64193469     -0.04320810      0.02636977     -0.00113939
ATVX     1  Mu1.0002  Se1.017                       0.61476462      0.01584861     -0.02507973     -0.00039748
ATVX     1  Mu1.0011  Se1.018                       1.05179988     -0.02806879      0.02676935     -0.00075138
ATVX     1  Mu1.0030  Se1.018                       1.48672854      0.05327453     -0.03581758     -0.00190816
ATVX     1  Mu1.0001  Se1.019                       0.49284782      0.01578286     -0.03204813     -0.00050581
ATVX     1  Mu1.0002  Se1.020                       0.66155097      0.01997362     -0.02954424     -0.00059011
ATVX     1  Mu1.0017  Se1.021                       1.50215044      0.05889316     -0.03873834     -0.00228142
ATVX     1  Mu1.0017  Se1.022                       1.54135462      0.05034908     -0.03203632     -0.00161300
BVATP    1  Mu1.0005  Se1.015 Se1.015               1.97269269      0.07211681     -0.03654526     -0.00263553
BVATP    1  Mu1.0005  Se1.018 Se1.018               2.14469953      0.07364242     -0.03433604     -0.00252859
BVATP    1  Mu1.0005  Se1.019 Se1.019               2.17282538      0.07288352     -0.03354772     -0.00244508
BVATM    1  Mu1.0005  Se1.019 Se1.013               2.15571503      0.06777000     -0.03125446     -0.00211811
--
 
   (Skipping property calculation,
    use PROP keyword to activate)
--
 
  Total CASPT2 energies:
 
  State-specific CASPT2 energies obtained using
  rotated states do not have a well-defined physical
  meaning, however they can be extracted from the
  diagonal of the effective Hamiltonian.
 
++ Multi-State CASPT2 section:
********************************************************************************
  MULTI-STATE CASPT2 SECTION
--------------------------------------------------------------------------------
 
  Output diagonal energies have been shifted. Add   -398.000000000000     
 
  Effective Hamiltonian matrix (Symmetric):
 
                1               2               3               4
   1        -0.82496899
   2        -0.00000000     -0.64328876
   3        -0.00000000      0.01054956     -0.62554504
   4        -0.00787331     -0.00000000      0.00000000     -0.49695985
 
       Total XMS-CASPT2 energies:
::    XMS-CASPT2 Root  1     Total energy:   -398.82515787
::    XMS-CASPT2 Root  2     Total energy:   -398.64820107
::    XMS-CASPT2 Root  3     Total energy:   -398.62063274
::    XMS-CASPT2 Root  4     Total energy:   -398.49677098
 
       Eigenvectors:
            0.99971238     -0.00000000     -0.00000000     -0.02398260
            0.00000000      0.90653927      0.42212149     -0.00000000
            0.00000000     -0.42212149      0.90653927      0.00000000
            0.02398260      0.00000000      0.00000000      0.99971238
 
       In terms of the input states:
            0.99999386     -0.00000000     -0.00000000      0.00350387
            0.00000000      0.98677819      0.16207651      0.00000000
            0.00000000     -0.16207651      0.98677819     -0.00000000
           -0.00350387     -0.00000000      0.00000000      0.99999386
 
--
 
  THE ORIGINAL CI ARRAYS ARE NOW MIXED AS LINEAR
  COMBINATIONS, GIVEN BY THE EIGENVECTORS.
  A NEW JOBIPH FILE NAMED 'JOBMIX' IS PREPARED.
********************************************************************************
 
++ Mixed CI coefficients:
  The CI coefficients for the MIXED state nr.   1
--------------------------------------------------------------------------------
 CI COEFFICIENTS LARGER THAN  0.10D+00
  Occupation of active orbitals, and spin coupling
  of open shells. (u,d: Spin up or down).
  SGUGA info is (Midvert:IsyUp:UpperWalk/LowerWalk)
        Conf  SGUGA info        Occupation    Coefficient         Weight
           1  ( 1:1:   1/   1)   222200         -0.968733       0.938444
          17  ( 2:1:   3/   2)   2u220d         -0.136036       0.018506
          31  ( 3:1:   1/   1)   220220          0.133724       0.017882
          52  ( 3:1:   4/   4)   202202          0.121266       0.014705
 
  The CI coefficients for the MIXED state nr.   2
--------------------------------------------------------------------------------
 CI COEFFICIENTS LARGER THAN  0.10D+00
  Occupation of active orbitals, and spin coupling
  of open shells. (u,d: Spin up or down).
  SGUGA info is (Midvert:IsyUp:UpperWalk/LowerWalk)
        Conf  SGUGA info        Occupation    Coefficient         Weight
           2  ( 1:1:   2/   1)   222ud0          0.716059       0.512741
           4  ( 1:1:   4/   1)   222u0d         -0.656017       0.430358
           8  ( 2:1:   2/   1)   22ud20          0.148729       0.022120
 
  The CI coefficients for the MIXED state nr.   3
--------------------------------------------------------------------------------
 CI COEFFICIENTS LARGER THAN  0.10D+00
  Occupation of active orbitals, and spin coupling
  of open shells. (u,d: Spin up or down).
  SGUGA info is (Midvert:IsyUp:UpperWalk/LowerWalk)
        Conf  SGUGA info        Occupation    Coefficient         Weight
           2  ( 1:1:   2/   1)   222ud0         -0.633730       0.401614
           4  ( 1:1:   4/   1)   222u0d         -0.718645       0.516451
           8  ( 2:1:   2/   1)   22ud20         -0.164012       0.026900
          21  ( 2:1:   7/   2)   2u2d02          0.141594       0.020049
          33  ( 3:1:   3/   1)   220u2d         -0.111632       0.012462
 
  The CI coefficients for the MIXED state nr.   4
--------------------------------------------------------------------------------
 CI COEFFICIENTS LARGER THAN  0.10D+00
  Occupation of active orbitals, and spin coupling
  of open shells. (u,d: Spin up or down).
  SGUGA info is (Midvert:IsyUp:UpperWalk/LowerWalk)
        Conf  SGUGA info        Occupation    Coefficient         Weight
           9  ( 2:1:   3/   1)   22u20d          0.936776       0.877550
          15  ( 2:1:   1/   2)   2u22d0         -0.192465       0.037043
          32  ( 3:1:   2/   1)   2202ud         -0.166941       0.027869
          40  ( 3:1:   4/   2)   2ud202         -0.132430       0.017538
 
--
 
--- Stop Module: caspt2 at Fri Mar 15 17:04:52 2024 /rc=_RC_ALL_IS_WELL_ ---

>>> COPY MOLCAS.JobMix MOLCAS.1.JobIph

*** symbolic link created: INPORB -> MOLCAS.RasOrb
--- Start Module: rasscf at Fri Mar 15 17:04:52 2024 ---
 
()()()()()()()()()()()()()()()()()()()()()()()()()()()()()()()()()()()()()()()()()()()()()()()()()()

                                              &RASSCF

                                   only a single process is used
                       available to each process: 10 GB of memory, 1 thread?
                                            pid: 1055492
()()()()()()()()()()()()()()()()()()()()()()()()()()()()()()()()()()()()()()()()()()()()()()()()()()
 
 
      Header of the ONEINT file:
      --------------------------
      
      Integrals generated by Gateway/Seward, Fri Mar 15 17:04:47 2024
 
 
      OrdInt status: non-squared
 
 
      Cartesian coordinates in Angstrom:
      -----------------------------------------------------
      No.  Label        X            Y            Z        
      -----------------------------------------------------
       1   S1         0.00000000   0.00000000   0.00084100
       2   H2         0.00000000   0.97479900   1.18293400
       3   H3         0.00000000  -0.97479900   1.18293400
      -----------------------------------------------------
      Nuclear repulsion energy =   11.32343694
 
++    Wave function specifications:
      -----------------------------
 
      Number of closed shell electrons          10
      Number of electrons in active shells       7
      Max number of holes in RAS1 space          0
      Max nr of electrons in RAS3 space          0
      Number of inactive orbitals                5
      Number of active orbitals                  6
      Number of secondary orbitals              17
      Spin quantum number                      0.5
      State symmetry                             1
--
 
++    Orbital specifications:
      -----------------------
 
      Symmetry species                           1
                                                 a
      Frozen orbitals                            0
      Inactive orbitals                          5
      Active orbitals                            6
      RAS1 orbitals                              0
      RAS2 orbitals                              6
      RAS3 orbitals                              0
      Secondary orbitals                        17
      Deleted orbitals                           0
      Number of basis functions                 28
--
 
++    CI expansion specifications:
      ----------------------------
 
      Number of CSFs                           210
      Number of determinants                   300
      Number of root(s) required                 2
      Root chosen for geometry opt.              2
      CI roots used                              1     2
      weights                                0.500 0.500
      highest root included in the CI            2
      max. size of the explicit Hamiltonian    200
--
 
++    Optimization specifications:
      ----------------------------
 
      RASSCF algorithm: LK RI/DF
      Maximum number of macro iterations       200
      Maximum number of SX iterations          100
      Threshold for RASSCF energy            0.100E-07
      Threshold for max MO rotation          0.100E-03
      Threshold for max BLB element          0.100E-03
      Level shift parameter                  0.500E+00
      Make Quasi-Newton update
--
 
      Orbitals from runfile: rasscf orbitals
      The MO-coefficients are taken from rasscf orbitals on runfile
 
      Total molecular charge    1.00
 
      ************************************************************************************************************************
      *                                                                                                                      *
      *                                            Wave function control section                                             *
      *                                                                                                                      *
      ************************************************************************************************************************
 
 
                                         RASSCF iterations: Energy and convergence statistics
                                         ----------------------------------------------------
 
      Iter CI   SX   CI       RASSCF       Energy    max ROT     max BLB   max BLB  Level Ln srch  Step   QN   Walltime
          iter iter root      energy       change     param      element    value   shift minimum  type update hh:mm:ss
 Nr of preliminary CI iterations:   2
        1   1   56    0  -398.27180140    0.00E+00   0.23E+00*   9  15 1  0.80E-01*  0.00   0.00    SX    NO    0:00:00
        2   3   12    0  -398.30257480   -0.31E-01*  0.62E-01*   7  21 1 -0.87E-02*  0.00   0.00    SX    NO    0:00:00
        3   3   11    0  -398.30450165   -0.19E-02* -0.27E-01*   7  12 1 -0.39E-02*  0.00   0.00    SX    NO    0:00:00
        4   3   10    0  -398.30479423   -0.29E-03*  0.13E-01*   7  12 1 -0.14E-02*  0.00   0.00    SX    NO    0:00:00
        5   3   10    0  -398.30486074   -0.67E-04*  0.13E-01*   7  12 1 -0.62E-03*  0.00   2.11    LS   YES    0:00:00
        6   3   10    0  -398.30488608   -0.25E-04* -0.51E-02*   7  21 1  0.30E-03*  0.00   1.05    QN   YES    0:00:00
        7   3    9    0  -398.30489262   -0.65E-05* -0.74E-02*   7  12 1  0.18E-03*  0.00   2.50    LS   YES    0:00:00
        8   3    9    0  -398.30489624   -0.36E-05* -0.76E-03*   7  21 1 -0.31E-03*  0.00   1.02    QN   YES    0:00:00
        9   3    8    0  -398.30489674   -0.50E-06* -0.48E-03*   7  21 1 -0.86E-04   0.00   1.35    QN   YES    0:00:00
       10   3    6    0  -398.30489681   -0.65E-07*  0.90E-04    9  15 1 -0.13E-04   0.00   1.11    QN   YES    0:00:00
       11   1    4    0  -398.30489681   -0.24E-08   0.66E-04    7  21 1  0.46E-05   0.00   2.50    QN   YES    0:00:00
      Convergence after 11 iterations
       12   1    4    0  -398.30489681   -0.44E-09   0.66E-04    6  14 1 -0.15E-05   0.00   2.50    QN   YES    0:00:00
 
      ************************************************************************************************************************
                                                      Wave function printout:
                       occupation of active orbitals, and spin coupling of open shells (u,d: Spin up or down)
      ************************************************************************************************************************
 
      Note: transformation to natural orbitals
      has been made, which may change the order of the CSFs.
 
      printout of CI-coefficients larger than  0.05 for root  1
      energy=    -398.370399
      conf/sym  111111     Coeff  Weight
             1  222u00  -0.97458 0.94981
            14  2u2du0  -0.06176 0.00381
            26  u22d0u  -0.05309 0.00282
            32  220u20  -0.07164 0.00513
            37  220u02  -0.06330 0.00401
            42  2ududu  -0.06134 0.00376
            44  2uduud  -0.09942 0.00988
            56  202u20  -0.10693 0.01143
 
      printout of CI-coefficients larger than  0.05 for root  2
      energy=    -398.239395
      conf/sym  111111     Coeff  Weight
             4  22u200  -0.97423 0.94913
            39  2ud2u0   0.06372 0.00406
            49  u2d20u   0.06840 0.00468
            57  20220u   0.07139 0.00510
            63  ud22u0   0.07958 0.00633
           107  2u02du  -0.05248 0.00275
           109  2u02ud  -0.05782 0.00334
           124  20u220  -0.10810 0.01169
           129  20u202  -0.05017 0.00252
           136  udu2ud  -0.05389 0.00290
 
      Natural orbitals and occupation numbers for root  1
      sym 1:   1.994836   1.950583   1.960836   1.000000   0.056261   0.037484
 
      Natural orbitals and occupation numbers for root  2
      sym 1:   1.977851   1.938957   1.006335   1.997830   0.047713   0.031314
 
      ************************************************************************************************************************
      *                                                                                                                      *
      *                                                    Final results                                                     *
      *                                                                                                                      *
      ************************************************************************************************************************
 
 
++    Wave function specifications:
      -----------------------------
 
      Number of closed shell electrons          10
      Number of electrons in active shells       7
      Max number of holes in RAS1 space          0
      Max nr of electrons in RAS3 space          0
      Number of inactive orbitals                5
      Number of active orbitals                  6
      Number of secondary orbitals              17
      Spin quantum number                      0.5
      State symmetry                             1
--
 
++    Orbital specifications:
      -----------------------
 
      Symmetry species                           1
                                                 a
      Frozen orbitals                            0
      Inactive orbitals                          5
      Active orbitals                            6
      RAS1 orbitals                              0
      RAS2 orbitals                              6
      RAS3 orbitals                              0
      Secondary orbitals                        17
      Deleted orbitals                           0
      Number of basis functions                 28
--
 
++    CI expansion specifications:
      ----------------------------
 
      Number of CSFs                           210
      Number of determinants                   300
      Number of root(s) required                 2
      CI roots used                              1     2
      weights                                0.500 0.500
      highest root included in the CI            2
      Root passed to geometry opt.               2
--
 
++    Final optimization conditions:
      ------------------------------
 
      Average CI energy                            -398.30489681
      RASSCF energy for state  2                   -398.23939487
      Super-CI energy                                -0.00000000
      RASSCF energy change                            0.00000000
      Max change in MO coefficients               0.776E-04
      Max non-diagonal density matrix element     0.656E-04
      Maximum BLB matrix element                 -0.148E-05
      (orbital pair   6,  14 in symmetry   1)
      Norm of electronic gradient            0.472E-01
--
 
 
      Final state energy(ies):
      ------------------------
 
::    RASSCF root number  1 Total energy:   -398.37039876
::    RASSCF root number  2 Total energy:   -398.23939487
 
++    Molecular orbitals:
      -------------------
 
      Pseudonatural active orbitals and approximate occupation numbers
 
 
 
 
      Molecular orbitals for symmetry species 1: a  
 
 
      Orbital                 1         2         3         4         5         6         7         8         9        10
      Energy           -92.3628   -9.3574   -7.0373   -7.0367   -7.0358   -1.2615   -0.0010    0.0000   -0.0010    0.0396
      Occ. No.           2.0000    2.0000    2.0000    2.0000    2.0000    1.9839    1.9444    1.4860    1.4989    0.0524
 
     1 S1     1s         1.0000    0.0002    0.0000   -0.0000   -0.0000    0.0035    0.0000   -0.0033    0.0000   -0.0000
     2 S1     2s         0.0001    1.0011   -0.0018    0.0000   -0.0000    0.0245    0.0000   -0.0299    0.0000   -0.0000
     3 S1     3s         0.0003    0.0025    0.0061   -0.0000    0.0000    0.9771    0.0000   -0.4451    0.0000   -0.0000
     4 S1     *s        -0.0003   -0.0047   -0.0018    0.0000    0.0000   -0.1057    0.0000    0.0146   -0.0000    0.0000
     5 S1     2px        0.0000   -0.0000   -0.0000   -0.0000    0.9999   -0.0000   -0.0000    0.0000    0.0095    0.0000
[...]
 
     1         0.00000000       0.00000000       0.00000000       0.00000000    
     2         0.00000000       0.00000000       0.00000000       0.00000000    
     3         0.00000000       0.00000000       0.00000000       0.00000000    
     4         0.00000000       0.00000000       0.00000000       0.00000000    
     5         0.00000000       0.00000000       0.00000000       0.00000000    
     6         0.00000000       0.00000000       0.00000000       0.00000000    
 
 
 PROPERTY: AMFI       COMPONENT:*   2
 ORIGIN    :   0.00000000D+00   0.00000000D+00   0.00000000D+00
 STATE     :       5                6
 
     1         0.00000000       0.00000000    
     2         0.00000000       0.00000000    
     3         0.00000000       0.00000000    
     4         0.00000000       0.00000000    
     5       -0.157457736E-30  0.175899900E-02
     6       -0.175899900E-02  0.125575069E-29
 
 
 PROPERTY: AMFI       COMPONENT:*   3
 ORIGIN    :   0.00000000D+00   0.00000000D+00   0.00000000D+00
 STATE     :       1                2                3                4
 
     1         0.00000000       0.00000000       0.00000000       0.00000000    
     2         0.00000000       0.00000000       0.00000000       0.00000000    
     3         0.00000000       0.00000000       0.00000000       0.00000000    
     4         0.00000000       0.00000000       0.00000000       0.00000000    
     5         0.00000000       0.00000000       0.00000000       0.00000000    
     6         0.00000000       0.00000000       0.00000000       0.00000000    
 
 
 PROPERTY: AMFI       COMPONENT:*   3
 ORIGIN    :   0.00000000D+00   0.00000000D+00   0.00000000D+00
 STATE     :       5                6
 
     1         0.00000000       0.00000000    
     2         0.00000000       0.00000000    
     3         0.00000000       0.00000000    
     4         0.00000000       0.00000000    
     5       -0.269017200E-29 -0.800249789E-07
     6        0.800249789E-07  0.658497482E-30
 
--
 
::    RASSI State    1     Total energy:    -398.82515786603824
::    RASSI State    2     Total energy:    -398.64820106545557
::    RASSI State    3     Total energy:    -398.62063273980107
::    RASSI State    4     Total energy:    -398.49677097803578
::    RASSI State    5     Total energy:    -398.46655459210263
::    RASSI State    6     Total energy:    -398.33935194347657
 
 
 
      ****************************************************************************************************
      *                                                                                                  *
      *                                         Spin-free section                                        *
      *                                                                                                  *
      *                 Note: index according to input order, order according to energy.                 *
      *                                                                                                  *
      ****************************************************************************************************
 
 
 
  SPIN-FREE ENERGIES:
  (Shifted by EMIN (a.u.) =       -398.8251578660)
 
 SF State       Relative EMIN(au)   Rel lowest level(eV)    D:o, cm**(-1)
 
     1             0.0000000000        0.0000000000              0.0000
     2             0.1769568006        4.8152398495          38837.5286
     3             0.2045251262        5.5654122070          44888.0767
     4             0.3283868880        8.9358624476          72072.5912
     5             0.3586032739        9.7580921961          78704.3214
     6             0.4858059226       13.2194525994         106622.0758
 
++ Dipole transition strengths (spin-free states):
   -----------------------------------------------
     for osc. strength at least  1.00000000E-05
 
      From   To        Osc. strength     Einstein coefficients Ax, Ay, Az (sec-1)    Total A (sec-1)
     -----------------------------------------------------------------------------------------------
         1    3       2.47448352E-04  3.32574378E+05  2.90663273E-13  1.68051526E-13  3.32574378E+05
         1    4       1.31900274E-02  7.37953359E-14  6.46520314E+06  3.92360593E+07  4.57012624E+07
         2    3       5.67858023E-03  6.66527392E-16  1.38626780E+05  3.96800776E+01  1.38666461E+05
         2    4       7.82013296E-04  5.76168309E+05  3.45576737E-15  1.98636448E-17  5.76168309E+05
         3    4       4.10811921E-03  2.02501585E+06  2.20234155E-15  7.17972954E-17  2.02501585E+06
         5    6       8.44401425E-03  4.38987496E+06  1.14768634E-15  1.73059862E-15  4.38987496E+06
     -----------------------------------------------------------------------------------------------
--
 
++ Velocity transition strengths (spin-free states):
   -------------------------------------------------
     for osc. strength at least  1.00000000E-05
 
      From   To        Osc. strength     Einstein coefficients Ax, Ay, Az (sec-1)    Total A (sec-1)
     -----------------------------------------------------------------------------------------------
         1    2       1.35766455E-05  1.36595967E+04  1.21820249E-15  8.50724333E-13  1.36595967E+04
         1    3       3.37690785E-03  4.53861592E+06  2.58408078E-12  1.72126918E-13  4.53861592E+06
         1    4       1.58234609E-02  6.54547464E-15  2.37232473E+06  5.24533491E+07  5.48256738E+07
         2    3       8.08388455E-04  5.22424659E-14  1.91025444E+04  6.37665574E+02  1.97402099E+04
         2    4       3.36020769E-04  2.47571901E+05  4.32344342E-14  7.53832195E-14  2.47571901E+05
         3    4       9.61497746E-03  4.73951236E+06  2.46747802E-13  4.61506429E-14  4.73951236E+06
         5    6       1.98989454E-02  1.03450657E+07  5.44539441E-18  8.88615077E-15  1.03450657E+07
     -----------------------------------------------------------------------------------------------
--
 
++ Length and velocity gauge comparison (spin-free states):
   --------------------------------------------------------
 
 --------------------------------------------------
 A comparison between the dipole oscillator strengths in 
 length and velocity gauge will be performed
 
     All dipole oscillator differences above the tolerance of   1.00000000E-01  will be printed 
 
 Due to basis set deficiency these oscillator may be problematic 
 
 The tolerance is defined as ABS(1-O_l/O_v) 
 O_l : dipole oscillator strength in length gauge
 O_p : dipole oscillator strength in velocity gauge
 --------------------------------------------------
 
  Problematic transitions have been found
 
      From   To       Difference (%) Osc. st. (len.) Osc. st. (vel.)
     ---------------------------------------------------------------
         1    2      --------------- below threshold  1.35766455E-05
         1    3            92.672339  2.47448352E-04  3.37690785E-03
         1    4            16.642589  1.31900274E-02  1.58234609E-02
         2    3           602.456869  5.67858023E-03  8.08388455E-04
         2    4           132.727667  7.82013296E-04  3.36020769E-04
         3    4            57.273751  4.10811921E-03  9.61497746E-03
         5    6            57.565519  8.44401425E-03  1.98989454E-02
     ---------------------------------------------------------------
 
 Number of problematic transitions =                      7
 
--
 
 Electric-dipole - electric-octupole not included
 Electric-dipole - magnetic-quadrupole not included
 
 
 
      ****************************************************************************************************
      *                                                                                                  *
      *                                         Spin-orbit section                                       *
      *                                                                                                  *
      ****************************************************************************************************
 
 
 Complex SO-Hamiltonian matrix elements over
 spin components of spin-free eigenstates (SFS):
 (In cm-1. Print threshold:      0.000 cm-1)
 ----------------------------------------------------------------------
 
  I1  S1  MS1    I2  S2  MS2    Real part    Imag part      Absolute
     1  0.0  0.0    1  0.0  0.0         0.000         0.000         0.000
     2  0.0  0.0    1  0.0  0.0         0.000         0.000         0.000
     2  0.0  0.0    2  0.0  0.0         0.000         0.000         0.000
     3  0.0  0.0    1  0.0  0.0         0.000         0.000         0.000
     3  0.0  0.0    2  0.0  0.0         0.000         0.000         0.000
     3  0.0  0.0    3  0.0  0.0         0.000         0.000         0.000
     4  0.0  0.0    1  0.0  0.0         0.000         0.000         0.000
     4  0.0  0.0    2  0.0  0.0         0.000         0.000         0.000
     4  0.0  0.0    3  0.0  0.0         0.000         0.000         0.000
     4  0.0  0.0    4  0.0  0.0         0.000         0.000         0.000
     5  0.5 -0.5    1  0.0  0.0         0.000         0.000         0.000
     5  0.5 -0.5    2  0.0  0.0         0.000         0.000         0.000
     5  0.5 -0.5    3  0.0  0.0         0.000         0.000         0.000
     5  0.5 -0.5    4  0.0  0.0         0.000         0.000         0.000
     5  0.5 -0.5    5  0.5 -0.5         0.000         0.000         0.000
     6  0.5  0.5    1  0.0  0.0         0.000         0.000         0.000
     6  0.5  0.5    2  0.0  0.0         0.000         0.000         0.000
     6  0.5  0.5    3  0.0  0.0         0.000         0.000         0.000
     6  0.5  0.5    4  0.0  0.0         0.000         0.000         0.000
     6  0.5  0.5    5  0.5 -0.5        -0.000        -0.000         0.000
     6  0.5  0.5    6  0.5  0.5         0.000        -0.000         0.000
     7  0.5 -0.5    1  0.0  0.0         0.000         0.000         0.000
     7  0.5 -0.5    2  0.0  0.0         0.000         0.000         0.000
     7  0.5 -0.5    3  0.0  0.0         0.000         0.000         0.000
     7  0.5 -0.5    4  0.0  0.0         0.000         0.000         0.000
     7  0.5 -0.5    5  0.5 -0.5         0.000        -0.007         0.007
     7  0.5 -0.5    6  0.5  0.5       157.607         0.000       157.607
     7  0.5 -0.5    7  0.5 -0.5         0.000        -0.000         0.000
     8  0.5  0.5    1  0.0  0.0         0.000         0.000         0.000
     8  0.5  0.5    2  0.0  0.0         0.000         0.000         0.000
     8  0.5  0.5    3  0.0  0.0         0.000         0.000         0.000
     8  0.5  0.5    4  0.0  0.0         0.000         0.000         0.000
     8  0.5  0.5    5  0.5 -0.5      -157.607         0.000       157.607
     8  0.5  0.5    6  0.5  0.5         0.000         0.007         0.007
     8  0.5  0.5    7  0.5 -0.5         0.000         0.000         0.000
     8  0.5  0.5    8  0.5  0.5         0.000         0.000         0.000
 ----------------------------------------------------------------------
 
       Total energies including SO-coupling:
::    SO-RASSI State    1     Total energy:    -398.82515786603824
::    SO-RASSI State    2     Total energy:    -398.64820106545557
::    SO-RASSI State    3     Total energy:    -398.62063273980107
::    SO-RASSI State    4     Total energy:    -398.49677097803578
::    SO-RASSI State    5     Total energy:    -398.46655864597375
::    SO-RASSI State    6     Total energy:    -398.46655864597375
::    SO-RASSI State    7     Total energy:    -398.33934788960545
::    SO-RASSI State    8     Total energy:    -398.33934788960545
 
 
   Eigenvalues of complex Hamiltonian:
   -----------------------------------
  (Shifted by EMIN (a.u.) =       -398.8251578660)
 
 SO State       Relative EMIN(au)   Rel lowest level(eV)    D:o, cm**(-1)
 
     1             0.0000000000        0.0000000000              0.0000
     2             0.1769568006        4.8152398495          38837.5286
     3             0.2045251262        5.5654122070          44888.0767
     4             0.3283868880        8.9358624476          72072.5912
     5             0.3585992201        9.7579818847          78703.4316
     6             0.3585992201        9.7579818847          78703.4316
     7             0.4858099764       13.2195629109         106622.9655
     8             0.4858099764       13.2195629109         106622.9655
 
 
 Weights of the five most important spin-orbit-free states for each spin-orbit s
 tate.
 
 SO State  Total energy (au)           Spin-free states, spin, and weights
 -------------------------------------------------------------------------------
 ------------------------
    1         0.000000       1 0.0  1.0000    6 0.5  0.0000    5 0.5  0.0000    4 0.0  0.0000    3 0.0  0.0000
    2         0.176957       2 0.0  1.0000    6 0.5  0.0000    5 0.5  0.0000    4 0.0  0.0000    3 0.0  0.0000
    3         0.204525       3 0.0  1.0000    6 0.5  0.0000    5 0.5  0.0000    4 0.0  0.0000    2 0.0  0.0000
    4         0.328387       4 0.0  1.0000    6 0.5  0.0000    5 0.5  0.0000    3 0.0  0.0000    2 0.0  0.0000
    5         0.358599       5 0.5  1.0000    6 0.5  0.0000    4 0.0  0.0000    3 0.0  0.0000    2 0.0  0.0000
    6         0.358599       5 0.5  1.0000    6 0.5  0.0000    4 0.0  0.0000    3 0.0  0.0000    2 0.0  0.0000
    7         0.485810       6 0.5  1.0000    5 0.5  0.0000    4 0.0  0.0000    3 0.0  0.0000    2 0.0  0.0000
    8         0.485810       6 0.5  1.0000    5 0.5  0.0000    4 0.0  0.0000    3 0.0  0.0000    2 0.0  0.0000
 -------------------------------------------------------------------------------
 ------------------------
 
 
      ****************************************************************************************************
      *                                                                                                  *
      *                                    Special properties section                                    *
      *                                                                                                  *
      ****************************************************************************************************
 
 
++ Dipole transition strengths (SO states):
   ----------------------------------------
        for osc. strength at least   1.00000000E-05
 
      From   To        Osc. strength     Einstein coefficients Ax, Ay, Az (sec-1)    Total A (sec-1)
     -----------------------------------------------------------------------------------------------
         1    3       2.47448352E-04  3.32574378E+05  2.90663273E-13  1.68051526E-13  3.32574378E+05
         1    4       1.31900274E-02  7.37953359E-14  6.46520314E+06  3.92360593E+07  4.57012624E+07
         2    3       5.67858023E-03  6.66527392E-16  1.38626780E+05  3.96800776E+01  1.38666461E+05
         2    4       7.82013296E-04  5.76168309E+05  3.45576737E-15  1.98636448E-17  5.76168309E+05
         3    4       4.10811921E-03  2.02501585E+06  2.20234155E-15  7.17972954E-17  2.02501585E+06
         5    7       8.44455246E-03  4.39071443E+06  4.33516145E-15  7.81213112E-10  4.39071443E+06
         6    8       8.44455246E-03  4.39071443E+06  4.33516145E-15  7.81213112E-10  4.39071443E+06
     -----------------------------------------------------------------------------------------------
--
 
++ Velocity transition strengths (SO states):
   ------------------------------------------
        for osc. strength at least   1.00000000E-05
 
      From   To        Osc. strength     Einstein coefficients Ax, Ay, Az (sec-1)    Total A (sec-1)
     -----------------------------------------------------------------------------------------------
         1    2       1.35766455E-05  1.36595967E+04  1.21820249E-15  8.50724333E-13  1.36595967E+04
         1    3       3.37690785E-03  4.53861592E+06  2.58408078E-12  1.72126918E-13  4.53861592E+06
         1    4       1.58234609E-02  6.54547464E-15  2.37232473E+06  5.24533491E+07  5.48256738E+07
         2    3       8.08388455E-04  5.22424659E-14  1.91025444E+04  6.37665574E+02  1.97402099E+04
         2    4       3.36020769E-04  2.47571901E+05  4.32344342E-14  7.53832195E-14  2.47571901E+05
         3    4       9.61497746E-03  4.73951236E+06  2.46747802E-13  4.61506429E-14  4.73951236E+06
         5    7       1.98951409E-02  1.03444063E+07  5.44504735E-18  8.88558441E-15  1.03444063E+07
         6    8       1.98951409E-02  1.03444063E+07  5.44504735E-18  8.88558441E-15  1.03444063E+07
     -----------------------------------------------------------------------------------------------
--
 
++ Length and velocity gauge comparison (SO states):
 
 --------------------------------------------------
 A comparison between the dipole oscillator strengths in 
 length and velocity gauge will be performed
 
     All dipole oscillator differences above the tolerance of   1.00000000E-01  will be printed 
 
 Due to basis set deficiency these oscillator may be problematic 
 
 The tolerance is defined as ABS(1-O_l/O_v) 
 O_l : dipole oscillator strength in length gauge
 O_p : dipole oscillator strength in velocity gauge
 --------------------------------------------------
 
  Problematic transitions have been found
 
      From   To       Difference (%) Osc. st. (len.) Osc. st. (vel.)
     ---------------------------------------------------------------
         1    2      --------------- below threshold  1.35766455E-05
         1    3            92.672339  2.47448352E-04  3.37690785E-03
         1    4            16.642589  1.31900274E-02  1.58234609E-02
         2    3           602.456869  5.67858023E-03  8.08388455E-04
         2    4           132.727667  7.82013296E-04  3.36020769E-04
         3    4            57.273751  4.10811921E-03  9.61497746E-03
         5    7            57.554699  8.44455246E-03  1.98951409E-02
         6    8            57.554699  8.44455246E-03  1.98951409E-02
     ---------------------------------------------------------------
 
 Number of problematic transitions =                      8
 
--
 
 Electric-dipole - electric-octupole not included
++ I/O STATISTICS
 
  I. General I/O information
  - - - - - - - - - - - - - - - - - - - - - - - - - - - - - - - - - - - - - - - - - - -
  Unit  Name          Flsize      Write/Read            MBytes           Write/Read
                      (MBytes)       Calls              In/Out           Time, sec.
  - - - - - - - - - - - - - - - - - - - - - - - - - - - - - - - - - - - - - - - - - - -
   1  ANNI              0.00 .       0/       0 .      0.0/      0.0 .       0/       0
   2  RUNFILE           0.25 .     322/    3768 .      2.3/     27.4 .       0/       0
   3  ONEINT            1.46 .       0/    1187 .      0.0/   1081.1 .       0/       0
   4  JOB001            1.20 .       0/      57 .      0.0/      1.1 .       0/       0
   5  JOB002            1.20 .       0/      45 .      0.0/      1.1 .       0/       0
  - - - - - - - - - - - - - - - - - - - - - - - - - - - - - - - - - - - - - - - - - - -
   *  TOTAL             4.11 .     322/    5057 .      2.3/   1110.7 .       0/       0
  - - - - - - - - - - - - - - - - - - - - - - - - - - - - - - - - - - - - - - - - - - -
 
  II. I/O Access Patterns
  - - - - - - - - - - - - - - - - - - - -
  Unit  Name               % of random
                         Write/Read calls
  - - - - - - - - - - - - - - - - - - - -
   1  ANNI                 0.0/   0.0
   2  RUNFILE             28.6/  10.5
   3  ONEINT               0.0/  97.6
   4  JOB001               0.0/  71.9
   5  JOB002               0.0/  77.8
  - - - - - - - - - - - - - - - - - - - -
--
--- Stop Module: rassi at Fri Mar 15 17:04:58 2024 /rc=_RC_ALL_IS_WELL_ ---
--- Module rassi spent 1 second ---

.##################.
.# Happy landing! #.
.##################.

    Timing: Wall=11.36 User=9.86 System=1.30
