   This run of MOLCAS is using the pymolcas driver

                             OPE
                             OPE          NMOL  CASOP  ENMOLC A   SO
                 OPE        NMOLC        AS  OP EN  MO LC     AS  OP
                OPENM       OL CA        SO  PE NM  OL CA     SOP EN
                OP EN      MO   LC       AS  OP ENMOL  CASO   PENMOL
                OP  EN     MO   LC       AS  OP EN     MO     LC ASO
               OP   E  NMOL  C  AS       OP  EN MO     LC     AS  OP
               OP  E   NMO   LC AS        OPEN  MO     LCASOP EN   M
               O  PEN   MO  LCA  SO
            OPE   NMO   L   CAS    OP
        OPENMOL  CASOP     ENMOL   CASOPE
     OPENMOLCA   SOPENMOLCASOPEN   MOLCASOPE
    OPENMOLCAS   OP           EN   MOL    CAS
    OPENMOLCAS       OP  ENM        O     LCA
    OPENMOLCAS    OPEN  MOLCASO     P  E  NMO
    OPENMOLCAS     OP               E  N  MOL
    OPENMOLCA   SO           PENM   O  L  CAS    OPEN    MO    LCAS
    OPENMOLCA   SOP           ENM   O  L  CAS   OP  EN  MOLC  AS   O
    OPENMOLCA   SOPE           NM      O  LCA   S      OP  EN MO
    OPENMOLC                AS         O  PEN   M      OL  CA  SOPE
    OPENMO        LCASOPE  NMOL        C  ASO   P      ENMOLC     AS
    OPE     NMO      LCA  SO     P     E   NM   OL  CA SO  PE N   MO
          OPENMOLCA            SOPE   NMO        LCAS  O    P  ENMO
     OPENMOLCASOPENMOLCASOPENMOLCASOPENMOLCA
        OPENMOLCASOPENMOLCASOPENMOLCASOPE
            OPENMOLCASOPENMOLCASOPENM
               OPENMOLCASOPENMOLCA        version: 23.06
                   OPENMOLCASO
                       OPE                tag: 105-gffc277a3d

 OpenMolcas is free software; you can redistribute it and/or modify it
 under the terms of the GNU Lesser General Public License version 2.1.
 OpenMolcas is distributed in the hope that it will be useful, but it
 is provided "as is" and without any express or implied warranties.
 For more details see the full text of the license in the file
 LICENSE or in <http://www.gnu.org/licenses/>.

                 Copyright (C) The OpenMolcas Authors
           For the author list and the recommended citation,
                   consult the file CONTRIBUTORS.md

           *************************************************
           * pymolcas version py2.25                       *
           *   build 2b27fa14244bdc32cb1957e6230cd793      *
           *   (after the EMIL interpreter by V. Veryazov) *
           *************************************************

configuration info
------------------
Host name: manganese.itc.univie.ac.at (Linux)
C Compiler ID: GNU
C flags: -std=gnu99
Fortran Compiler ID: Intel
Fortran flags: -fpp -i8 -heap-arrays
Definitions: _MOLCAS_;_I8_;_LINUX_
Parallel: OFF (GA=OFF)


   ---------------------------------------------------------------------------
  |
  |           Project: MOLCAS
  |    Submitted from: /public/manganese/scratch/tmp/sascha.925337/WORK/master
  |      Scratch area: /public/manganese/scratch/tmp/sascha.925337/WORK/master
  |   Save outputs to: WORKDIR
  |            Molcas: /usr/license/openmolcas/v23.06
  |
  | Scratch area is NOT empty
  |
  |        MOLCASMEM = 10000
  |    MOLCAS_DRIVER = /usr/license/openmolcas/v23.06/bin/pymolcas
  |    MOLCAS_NPROCS = 1
  |    MOLCAS_SOURCE = /usr/license/openmolcas/v23.06
  | MOLCAS_STRUCTURE = 0
  |
   ---------------------------------------------------------------------------

++ ---------   Input file   ---------

&GATEWAY
COORD=MOLCAS.xyz
GROUP=NOSYM
BASIS=cc-pvdz
AMFI
angmom
0 0 0
BASLIB
/user/sascha/development/eci/sharc_main/examples/SHARC_MOLCAS/basisset

RICD
CDTHreshold=0.0001

&SEWARD
DOANA

&RASSCF
SPIN=1
NACTEL=8 0 0
INACTIVE=5
RAS2=6
ITERATIONS=200,100
CIROOT=4 5
 1 2 3 4
1 1 1 1
THRS=0.000000010000 0.000100000000 0.000100000000

>>> COPY MOLCAS.rasscf.molden MOLCAS.1.molden

&CASPT2
SHIFT=0.0
IMAGINARY= 0.000
IPEASHIFT= 0.00
MAXITER=120
MULTISTATE= 4 1 2 3 4
OUTPUT=BRIEF
PRWF=0.1

>>> COPY MOLCAS.JobMix MOLCAS.1.JobIph

&RASSCF
SPIN=2
NACTEL=7 0 0
INACTIVE=5
RAS2=6
ITERATIONS=200,100
CIROOT=2 2 1
THRS=0.000000010000 0.000100000000 0.000100000000

>>> COPY MOLCAS.rasscf.molden MOLCAS.2.molden

&CASPT2
SHIFT=0.0
IMAGINARY= 0.000
IPEASHIFT= 0.00
MAXITER=120
MULTISTATE= 2 1 2
OUTPUT=BRIEF
PRWF=0.1

>>> COPY MOLCAS.JobMix MOLCAS.2.JobIph

>>> COPY MOLCAS.1.JobIph JOB001

&RASSI
NROFJOBIPHS
1 4
1 2 3 4
MEIN
EJOB

>>> COPY MOLCAS.2.JobIph JOB001

&RASSI
NROFJOBIPHS
1 2
1 2
MEIN
EJOB

>>> COPY MOLCAS.1.JobIph JOB001

>>> COPY MOLCAS.2.JobIph JOB002

&RASSI
NROFJOBIPHS
2 4 2
1 2 3 4
1 2
MEIN
EJOB
SPINORBIT
SOCOUPLING=0.0d0
EJOB

-- ----------------------------------

--- Start Module: gateway at Fri Mar 15 22:19:06 2024 ---
 
()()()()()()()()()()()()()()()()()()()()()()()()()()()()()()()()()()()()()()()()()()()()()()()()()()

                                              &GATEWAY

                                   only a single process is used
                       available to each process: 10 GB of memory, 1 thread?
                                            pid: 1200328
()()()()()()()()()()()()()()()()()()()()()()()()()()()()()()()()()()()()()()()()()()()()()()()()()()
 
 
 
 Basis Set     1 Label: S.CC-PVDZ
 Basis set is read from library:/user/sascha/development/eci/sharc_main/examples/SHARC_MOLCAS/basisset 
 
 
 Basis Set     2 Label: H.CC-PVDZ
 Basis set is read from library:/user/sascha/development/eci/sharc_main/examples/SHARC_MOLCAS/basisset 
 
++    Symmetry information:
      ---------------------
 
                    Character Table for C1 
 
                             E  
                    a        1  x, y, xy, Rz, z, xz, Ry, yz, Rx, I
--
 
 
++    Basis set information:
      ----------------------
 
 
      Basis set label: S.CC-PVDZ.........
 
      Electronic valence basis set:
      ------------------
      Associated Effective Charge  16.000000 au
      Associated Actual Charge     16.000000 au
      Nuclear Model: Point charge
 
      Shell  nPrim  nBasis  Cartesian Spherical Contaminant
         s      12       4        X                  
         p       8       3        X                  
         d       1       1                 X         
 
 
      Basis set label: H.CC-PVDZ.........
 
      Electronic valence basis set:
      ------------------
      Associated Effective Charge   1.000000 au
      Associated Actual Charge      1.000000 au
      Nuclear Model: Point charge
 
      Shell  nPrim  nBasis  Cartesian Spherical Contaminant
         s       4       2        X                  
         p       1       1        X                  
--
 
 
++    Molecular structure info:
      -------------------------
 
                    ************************************************ 
                    **** Cartesian Coordinates / Bohr, Angstrom **** 
                    ************************************************ 
 
     Center  Label                x              y              z                     x              y              z
        1      S1               0.000000       0.000000       0.001589              0.000000       0.000000       0.000841
        2      H2               0.000000       1.842103       2.235421              0.000000       0.974799       1.182934
        3      H3               0.000000      -1.842103       2.235421              0.000000      -0.974799       1.182934
 
                    *************************************** 
                    *    InterNuclear Distances / Bohr    * 
                    *************************************** 
 
               1 S1            2 H2            3 H3    
    1 S1       0.000000
    2 H2       2.895401        0.000000
    3 H3       2.895401        3.684206        0.000000
 
                    ******************************************* 
                    *    InterNuclear Distances / Angstrom    * 
                    ******************************************* 
 
               1 S1            2 H2            3 H3    
    1 S1       0.000000
    2 H2       1.532180        0.000000
    3 H3       1.532180        1.949598        0.000000
 
                    ************************************** 
                    *    Valence Bond Angles / Degree    * 
                    ************************************** 
                          Atom centers                 Phi
                      2 H2       1 S1       3 H3        79.02
--
 
 
            Nuclear Potential Energy             11.32343694 au
 
--- Stop Module: gateway at Fri Mar 15 22:19:07 2024 /rc=_RC_ALL_IS_WELL_ ---

--- Start Module: seward at Fri Mar 15 22:19:07 2024 ---
 
()()()()()()()()()()()()()()()()()()()()()()()()()()()()()()()()()()()()()()()()()()()()()()()()()()

                                              &SEWARD

                                   only a single process is used
                       available to each process: 10 GB of memory, 1 thread?
                                            pid: 1200333
()()()()()()()()()()()()()()()()()()()()()()()()()()()()()()()()()()()()()()()()()()()()()()()()()()
 
 RdCtl: keyword DOAN is obsolete and is ignored!
               SEWARD will generate:
                  Multipole Moment integrals up to order  2
                  Kinetic Energy integrals
                  Nuclear Attraction integrals (point charge)
                  One-Electron Hamiltonian integrals
                  Velocity integrals
                  Orbital angular momentum around ( 0.0000  0.0000  0.0000 )
                  Velocity quadrupole around ( 0.0000  0.0000  0.1341 )
                  Atomic mean-field integrals
                  RI decomposed two-electron repulsion integrals stored Cholesky style
                   - acCD auxiliary basis
                   - CD Threshold:   0.10E-03
 
                   Integrals are discarded if absolute value <: 0.10E-13
                   Integral cutoff threshold is set to       <: 0.10E-15
 
            Nuclear Potential Energy             11.32343694 au
 
 
      Basis set specifications :
      Symmetry species         a  
      Basis functions           28
 
 
      Input file to MOLDEN was generated!
 
--- Stop Module: seward at Fri Mar 15 22:19:08 2024 /rc=_RC_ALL_IS_WELL_ ---

*** symbolic link created: INPORB -> MOLCAS.GssOrb
--- Start Module: rasscf at Fri Mar 15 22:19:08 2024 ---
 
()()()()()()()()()()()()()()()()()()()()()()()()()()()()()()()()()()()()()()()()()()()()()()()()()()

                                              &RASSCF

                                   only a single process is used
                       available to each process: 10 GB of memory, 1 thread?
                                            pid: 1200350
()()()()()()()()()()()()()()()()()()()()()()()()()()()()()()()()()()()()()()()()()()()()()()()()()()
 
 
      Header of the ONEINT file:
      --------------------------
      
      Integrals generated by Gateway/Seward, Fri Mar 15 22:19:07 2024
 
 
      OrdInt status: non-squared
 
 
      Cartesian coordinates in Angstrom:
      -----------------------------------------------------
      No.  Label        X            Y            Z        
      -----------------------------------------------------
       1   S1         0.00000000   0.00000000   0.00084100
       2   H2         0.00000000   0.97479900   1.18293400
       3   H3         0.00000000  -0.97479900   1.18293400
      -----------------------------------------------------
      Nuclear repulsion energy =   11.32343694
 
++    Wave function specifications:
      -----------------------------
 
      Number of closed shell electrons          10
      Number of electrons in active shells       8
      Max number of holes in RAS1 space          0
      Max nr of electrons in RAS3 space          0
      Number of inactive orbitals                5
      Number of active orbitals                  6
      Number of secondary orbitals              17
      Spin quantum number                      0.0
      State symmetry                             1
--
 
++    Orbital specifications:
      -----------------------
 
      Symmetry species                           1
                                                 a
      Frozen orbitals                            0
      Inactive orbitals                          5
      Active orbitals                            6
      RAS1 orbitals                              0
      RAS2 orbitals                              6
      RAS3 orbitals                              0
      Secondary orbitals                        17
      Deleted orbitals                           0
      Number of basis functions                 28
--
 
++    CI expansion specifications:
      ----------------------------
 
      Number of CSFs                           105
      Number of determinants                   120
      Number of root(s) required                 4
      CI roots used                              1     2     3     4
      weights                                0.250 0.250 0.250 0.250
      highest root included in the CI            5
      max. size of the explicit Hamiltonian    105
--
 
++    Optimization specifications:
      ----------------------------
 
      RASSCF algorithm: LK RI/DF
      Maximum number of macro iterations       200
      Maximum number of SX iterations          100
      Threshold for RASSCF energy            0.100E-07
      Threshold for max MO rotation          0.100E-03
      Threshold for max BLB element          0.100E-03
      Level shift parameter                  0.500E+00
      Make Quasi-Newton update
--
 
      Orbitals from runfile: guessorb orbitals
      The MO-coefficients are taken from guessorb on runfile
 
      Total molecular charge    0.00
 
      ************************************************************************************************************************
      *                                                                                                                      *
      *                                            Wave function control section                                             *
      *                                                                                                                      *
      ************************************************************************************************************************
 
 
                                         RASSCF iterations: Energy and convergence statistics
                                         ----------------------------------------------------
 
      Iter CI   SX   CI       RASSCF       Energy    max ROT     max BLB   max BLB  Level Ln srch  Step   QN   Walltime
          iter iter root      energy       change     param      element    value   shift minimum  type update hh:mm:ss
 Nr of preliminary CI iterations:   1
        1   1   68    0  -398.43648246    0.00E+00   0.12E+00*   7  18 1  0.16E+00*  0.00   0.00    SX    NO    0:00:00
        2   1   14    0  -398.50214711   -0.66E-01* -0.65E-01*   6  13 1  0.30E-01*  0.00   0.00    SX    NO    0:00:00
        3   1   15    0  -398.50663063   -0.45E-02*  0.40E-01*  11  13 1 -0.13E-01*  0.00   0.00    SX    NO    0:00:00
        4   1   15    0  -398.50793273   -0.13E-02* -0.17E-01*  11  13 1 -0.55E-02*  0.00   0.00    SX    NO    0:00:00
        5   1   14    0  -398.50812944   -0.20E-03* -0.12E-01*  11  13 1 -0.24E-02*  0.00   1.73    LS   YES    0:00:00
        6   1   13    0  -398.50817198   -0.43E-04*  0.10E-02*   8  17 1  0.50E-03*  0.00   1.03    QN   YES    0:00:00
        7   1   11    0  -398.50817367   -0.17E-05*  0.49E-03*   7  13 1 -0.12E-03*  0.00   1.33    QN   YES    0:00:00
        8   1   10    0  -398.50817401   -0.35E-06*  0.16E-02*   7  13 1 -0.24E-03*  0.00   2.12    QN   YES    0:00:00
        9   1   13    0  -398.50817610   -0.21E-05*  0.24E-02*   7  13 1 -0.88E-03*  0.00   2.50    LS   YES    0:00:00
       10   1   14    0  -398.50818144   -0.53E-05*  0.36E-02*   7  13 1 -0.18E-02*  0.00   2.50    LS   YES    0:00:00
       11   1   15    0  -398.50819138   -0.99E-05*  0.23E+00*   7  13 1 -0.27E-02*  0.00   2.08    QN   YES    0:00:00
       12   1  100    0  -398.43844349    0.70E-01*  0.97E-01*   7  13 1  0.11E+00*  0.00   0.00    LS   YES    0:00:00
       13   1   90    0  -398.48541205   -0.47E-01*  0.78E-01*   7  13 1  0.57E-01*  0.00   2.19    LS   YES    0:00:00
       14   1   22    0  -398.50481622   -0.19E-01*  0.40E-01*   7  13 1  0.18E-01*  0.00   1.60    QN   YES    0:00:00
       15   1   17    0  -398.50803577   -0.32E-02* -0.85E-02*   8  21 1 -0.46E-02*  0.00   1.26    QN   YES    0:00:00
       16   1   16    0  -398.50820934   -0.17E-03*  0.97E-02*   7  13 1 -0.29E-02*  0.00   1.44    SX   YES    0:00:00
       17   1   15    0  -398.50835468   -0.15E-03*  0.55E-02*   7  13 1 -0.14E-02*  0.00   1.58    LS   YES    0:00:00
       18   1   15    0  -398.50837758   -0.23E-04*  0.37E-02*   7  18 1 -0.12E-02*  0.00   1.02    QN   YES    0:00:00
       19   1   13    0  -398.50838911   -0.12E-04* -0.13E-02*   8  17 1  0.29E-03*  0.00   1.29    QN   YES    0:00:00
       20   1    9    0  -398.50838999   -0.88E-06* -0.61E-04    3  27 1  0.99E-04   0.00   1.03    QN   YES    0:00:00
       21   1    6    0  -398.50839001   -0.17E-07*  0.21E-04    3  27 1  0.33E-04   0.00   1.26    QN   YES    0:00:00
       22   1    4    0  -398.50839001   -0.12E-08  -0.17E-05    3  27 1 -0.80E-05   0.00   0.94    QN   YES    0:00:00
      Convergence after 22 iterations
       23   1    4    0  -398.50839001   -0.32E-10  -0.17E-05    3  27 1 -0.11E-05   0.00   0.94    QN   YES    0:00:00
 
      ************************************************************************************************************************
                                                      Wave function printout:
                       occupation of active orbitals, and spin coupling of open shells (u,d: Spin up or down)
      ************************************************************************************************************************
 
      Note: transformation to natural orbitals
      has been made, which may change the order of the CSFs.
 
      printout of CI-coefficients larger than  0.05 for root  1
      energy=    -398.693733
      conf/sym  111111     Coeff  Weight
             1  222200  -0.96870 0.93838
            17  2u220d  -0.13604 0.01851
            31  220220   0.13389 0.01793
            52  202202   0.12141 0.01474
 
      printout of CI-coefficients larger than  0.05 for root  2
      energy=    -398.508671
      conf/sym  111111     Coeff  Weight
             2  222ud0   0.60388 0.36467
             4  222u0d  -0.76382 0.58342
             8  22ud20   0.12018 0.01444
            19  2u2udd   0.06213 0.00386
            21  2u2d02   0.11257 0.01267
            33  220u2d  -0.09348 0.00874
            53  202ud2  -0.05907 0.00349
 
      printout of CI-coefficients larger than  0.05 for root  3
      energy=    -398.476527
      conf/sym  111111     Coeff  Weight
             2  222ud0  -0.74141 0.54969
             4  222u0d  -0.60282 0.36339
             8  22ud20  -0.18595 0.03458
            19  2u2udd  -0.07143 0.00510
            21  2u2d02   0.12500 0.01563
            33  220u2d  -0.09777 0.00956
            53  202ud2   0.10931 0.01195
 
      printout of CI-coefficients larger than  0.05 for root  4
      energy=    -398.354629
      conf/sym  111111     Coeff  Weight
             5  2220ud   0.06409 0.00411
             7  22u2d0   0.05609 0.00315
             9  22u20d   0.93679 0.87757
            15  2u22d0  -0.19254 0.03707
            32  2202ud  -0.16686 0.02784
            40  2ud202  -0.13240 0.01753
            44  u2d2ud  -0.08910 0.00794
 
      printout of CI-coefficients larger than  0.05 for root  5
      energy=    -398.341883
      conf/sym  111111     Coeff  Weight
             7  22u2d0  -0.10295 0.01060
             9  22u20d   0.20564 0.04229
            15  2u22d0   0.90564 0.82018
            17  2u220d   0.05150 0.00265
            23  u222d0   0.07901 0.00624
            31  220220  -0.06656 0.00443
            32  2202ud  -0.05789 0.00335
            37  2ud220   0.18500 0.03422
            50  2022ud   0.22890 0.05240
            55  ud2220   0.05485 0.00301
            56  ud22ud  -0.05728 0.00328
            82  20u22d   0.06595 0.00435
 
      Natural orbitals and occupation numbers for root  1
      sym 1:   1.997120   1.962308   1.957111   1.998601   0.052236   0.032623
 
      Natural orbitals and occupation numbers for root  2
      sym 1:   1.998868   1.985146   1.958273   1.000000   0.058606   0.999107
 
      Natural orbitals and occupation numbers for root  3
      sym 1:   1.998722   1.970581   1.936112   1.000000   0.991928   0.102656
 
      Natural orbitals and occupation numbers for root  4
      sym 1:   1.984986   1.943113   1.052035   1.986546   0.079948   0.953371
 
      Natural orbitals and occupation numbers for root  5
      sym 1:   1.987856   1.052545   1.932706   1.993128   0.953541   0.080224
 
      ************************************************************************************************************************
      *                                                                                                                      *
      *                                                    Final results                                                     *
      *                                                                                                                      *
      ************************************************************************************************************************
 
 
++    Wave function specifications:
      -----------------------------
 
      Number of closed shell electrons          10
      Number of electrons in active shells       8
      Max number of holes in RAS1 space          0
      Max nr of electrons in RAS3 space          0
      Number of inactive orbitals                5
      Number of active orbitals                  6
      Number of secondary orbitals              17
      Spin quantum number                      0.0
      State symmetry                             1
--
 
++    Orbital specifications:
      -----------------------
 
      Symmetry species                           1
                                                 a
      Frozen orbitals                            0
      Inactive orbitals                          5
      Active orbitals                            6
      RAS1 orbitals                              0
      RAS2 orbitals                              6
      RAS3 orbitals                              0
      Secondary orbitals                        17
      Deleted orbitals                           0
      Number of basis functions                 28
--
 
++    CI expansion specifications:
      ----------------------------
 
      Number of CSFs                           105
      Number of determinants                   120
      Number of root(s) required                 4
      CI roots used                              1     2     3     4
      weights                                0.250 0.250 0.250 0.250
      highest root included in the CI            5
      Root passed to geometry opt.               1
--
 
++    Final optimization conditions:
      ------------------------------
 
      Average CI energy                            -398.50839001
      RASSCF energy for state  1                   -398.69373310
      Super-CI energy                                -0.00000000
      RASSCF energy change                           -0.00000000
      Max change in MO coefficients              -0.306E-05
      Max non-diagonal density matrix element    -0.171E-05
      Maximum BLB matrix element                 -0.107E-05
      (orbital pair   3,  27 in symmetry   1)
      Norm of electronic gradient            0.574E-01
--
 
 
      Final state energy(ies):
      ------------------------
 
::    RASSCF root number  1 Total energy:   -398.69373310
::    RASSCF root number  2 Total energy:   -398.50867090
::    RASSCF root number  3 Total energy:   -398.47652741
::    RASSCF root number  4 Total energy:   -398.35462862
::    RASSCF root number  5 Total energy:   -398.34188304
 
++    Molecular orbitals:
      -------------------
 
      Pseudonatural active orbitals and approximate occupation numbers
 
 
 
 
      Molecular orbitals for symmetry species 1: a  
 
 
      Orbital                 1         2         3         4         5         6         7         8         9        10
      Energy           -92.0114   -9.0113   -6.6909   -6.6899   -6.6895   -0.9162    0.0071    0.0000    0.0105   -0.0136
      Occ. No.           2.0000    2.0000    2.0000    2.0000    2.0000    1.9906    1.9503    1.7207    1.4963    0.3132
 
     1 S1     1s         1.0000    0.0002    0.0000    0.0000    0.0000    0.0008    0.0012    0.0010   -0.0000    0.0029
     2 S1     2s         0.0001    1.0012   -0.0021   -0.0019    0.0000    0.0070    0.0043    0.0027   -0.0000    0.0119
     3 S1     3s         0.0003    0.0007    0.0022    0.0023   -0.0000    0.9496   -0.1378   -0.2347   -0.0000   -0.2362
     4 S1     *s        -0.0002   -0.0050   -0.0012   -0.0010   -0.0000   -0.0374   -0.0796   -0.0885    0.0000   -0.3664
     5 S1     2px       -0.0000    0.0000    0.0000    0.0000    1.0000    0.0000   -0.0000   -0.0000   -0.0027    0.0000
     6 S1     3px       -0.0000    0.0000    0.0000   -0.0000    0.0001    0.0000   -0.0000    0.0000    0.9753    0.0000
     7 S1     *px        0.0000   -0.0000   -0.0000    0.0000    0.0004   -0.0000    0.0000    0.0000    0.0232   -0.0000
     8 S1     2py       -0.0000    0.0000   -0.6707    0.7417   -0.0000    0.0002   -0.0050    0.0047    0.0000    0.0081
     9 S1     3py       -0.0000    0.0006   -0.0012    0.0006   -0.0000   -0.0231    0.5736   -0.4773    0.0000    0.5492
    10 S1     *py        0.0000   -0.0001    0.0007    0.0001    0.0000    0.0017   -0.0639    0.0629   -0.0000    0.1586
    11 S1     2pz        0.0000    0.0035    0.7418    0.6706   -0.0000   -0.0051   -0.0056   -0.0064   -0.0000   -0.0109
    12 S1     3pz        0.0000    0.0025    0.0015    0.0007   -0.0000    0.0692    0.5189    0.5594    0.0000   -0.5309
    13 S1     *pz       -0.0001   -0.0031   -0.0008    0.0001   -0.0000   -0.0273   -0.0431   -0.0552    0.0000   -0.1904
    14 S1     *d2-      -0.0000   -0.0000   -0.0000    0.0000    0.0000   -0.0000   -0.0000   -0.0000   -0.0014    0.0000
    15 S1     *d1-      -0.0000   -0.0000   -0.0003    0.0003   -0.0000   -0.0036    0.0457   -0.0412    0.0000   -0.0873
    16 S1     *d0       -0.0000    0.0001    0.0003    0.0002   -0.0000    0.0068    0.0207    0.0226   -0.0000    0.0144
    17 S1     *d1+       0.0000   -0.0000    0.0000    0.0000    0.0002   -0.0000   -0.0000    0.0000    0.0147   -0.0000
    18 S1     *d2+      -0.0000   -0.0001   -0.0001   -0.0001    0.0000   -0.0066   -0.0101   -0.0138    0.0000   -0.0076
    19 H2     1s         0.0000    0.0000    0.0005    0.0016   -0.0000    0.1729    0.5709   -0.0128   -0.0000   -0.0991
    20 H2     *s         0.0001    0.0020   -0.0002   -0.0006    0.0000   -0.0866   -0.1219   -0.0139    0.0000    0.1224
    21 H2     *px       -0.0000    0.0000   -0.0000   -0.0000   -0.0000    0.0000   -0.0000    0.0000    0.0111    0.0000
    22 H2     *py        0.0000    0.0004   -0.0000   -0.0001    0.0000   -0.0114   -0.0164   -0.0072    0.0000    0.0094
    23 H2     *pz        0.0000    0.0004   -0.0001   -0.0001    0.0000   -0.0123   -0.0189    0.0069   -0.0000    0.0039
    24 H3     1s         0.0000   -0.0008    0.0013    0.0004   -0.0000    0.2177   -0.0745    0.6235   -0.0000    0.8140
    25 H3     *s         0.0001    0.0021   -0.0003   -0.0002    0.0000   -0.0973   -0.0031   -0.1291   -0.0000    0.4556
    26 H3     *px       -0.0000   -0.0000   -0.0000   -0.0000    0.0000   -0.0000   -0.0000    0.0000    0.0148    0.0000
    27 H3     *py       -0.0000   -0.0004    0.0000    0.0000   -0.0000    0.0122    0.0085    0.0167   -0.0000   -0.0057
    28 H3     *pz        0.0000    0.0005   -0.0001   -0.0000    0.0000   -0.0142    0.0095   -0.0187    0.0000    0.0133
 
 
      Orbital                11
      Energy             0.0089
      Occ. No.           0.5289
 
     1 S1     1s         0.0041
     2 S1     2s         0.0207
     3 S1     3s        -0.2205
     4 S1     *s        -0.4270
     5 S1     2px        0.0000
     6 S1     3px        0.0000
     7 S1     *px       -0.0000
     8 S1     2py       -0.0042
     9 S1     3py       -0.4808
    10 S1     *py       -0.2187
    11 S1     2pz       -0.0082
    12 S1     3pz       -0.4736
    13 S1     *pz       -0.2412
    14 S1     *d2-       0.0000
    15 S1     *d1-       0.0760
    16 S1     *d0        0.0101
    17 S1     *d1+       0.0000
    18 S1     *d2+      -0.0205
    19 H2     1s         0.7288
    20 H2     *s         0.6207
    21 H2     *px        0.0000
    22 H2     *py        0.0068
    23 H2     *pz        0.0157
    24 H3     1s        -0.0853
    25 H3     *s         0.1027
    26 H3     *px       -0.0000
    27 H3     *py       -0.0072
    28 H3     *pz        0.0014
--
 
      Von Neumann Entropy (Root   1) =  0.29483
 

      Mulliken population analysis for root number:  1
      -----------------------------------------------
 
 
++    Molecular charges:
      ------------------
 
      Mulliken charges per centre and basis function type
      ---------------------------------------------------
 
                S1      H2      H3    
      1s       2.0000  1.0858  1.1335
      2s       2.0024  0.0000  0.0000
      2px      1.9999  0.0000  0.0000
      2pz      2.0000  0.0000  0.0000
      2py      2.0001  0.0000  0.0000
      3s       1.9432  0.0000  0.0000
      3px      1.9483  0.0000  0.0000
      3pz      1.3199  0.0000  0.0000
      3py      1.2007  0.0000  0.0000
      *s      -0.0659 -0.1528 -0.2231
      *px      0.0417  0.0034  0.0047
      *pz     -0.1544  0.0098  0.0109
      *py     -0.1728  0.0074  0.0081
      *d2+     0.0036  0.0000  0.0000
      *d1+     0.0006  0.0000  0.0000
      *d0      0.0073  0.0000  0.0000
      *d1-     0.0377  0.0000  0.0000
      *d2-     0.0000  0.0000  0.0000
      Total   16.1124  0.9535  0.9341
 
      N-E     -0.1124  0.0465  0.0659
 
      Total electronic charge=   18.000000
 
      Total            charge=   -0.000000
--
 
 

      Expectation values of various properties for root number:  1
      -----------------------------------------------------------
 
 
++    Molecular properties:
      ---------------------
 
      Charge (e):
                      =   -0.0000
      Dipole Moment (Debye):
      Origin of the operator (Ang)=    0.0000    0.0000    0.0000
                   X= -6.5800E-11               Y= -3.9736E-02               Z=  9.6181E-01           Total=  9.6263E-01
      Quadrupole Moment (Debye*Ang):
      Origin of the operator (Ang)=    0.0000    0.0000    0.0709
                  XX= -1.6701E+01              XY=  3.2885E-11              XZ= -4.0483E-11              YY= -1.3324E+01
                  YZ= -6.6388E-02              ZZ= -1.3053E+01
      In traceless form (Debye*Ang)
                  XX= -3.5125E+00              XY=  4.9328E-11              XZ= -6.0725E-11              YY=  1.5532E+00
                  YZ= -9.9583E-02              ZZ=  1.9593E+00
--
 
      Von Neumann Entropy (Root   2) =  1.19071
 

      Mulliken population analysis for root number:  2
      -----------------------------------------------
 
 
++    Molecular charges:
      ------------------
 
      Mulliken charges per centre and basis function type
      ---------------------------------------------------
 
                S1      H2      H3    
      1s       2.0000  1.1603  1.1793
      2s       2.0024  0.0000  0.0000
      2px      1.9999  0.0000  0.0000
      2pz      2.0000  0.0000  0.0000
      2py      2.0001  0.0000  0.0000
      3s       1.9537  0.0000  0.0000
      3px      0.9749  0.0000  0.0000
      3pz      1.4150  0.0000  0.0000
      3py      1.7292  0.0000  0.0000
      *s      -0.0512 -0.1044 -0.2171
      *px      0.0209  0.0017  0.0023
      *pz     -0.1270  0.0135  0.0132
      *py     -0.0649  0.0083  0.0086
      *d2+     0.0034  0.0000  0.0000
      *d1+     0.0003  0.0000  0.0000
      *d0      0.0067  0.0000  0.0000
      *d1-     0.0708  0.0000  0.0000
      *d2-     0.0000  0.0000  0.0000
      Total   15.9342  1.0794  0.9864
 
      N-E      0.0658 -0.0794  0.0136
 
      Total electronic charge=   18.000000
 
      Total            charge=   -0.000000
--
 
 

      Expectation values of various properties for root number:  2
      -----------------------------------------------------------
 
 
++    Molecular properties:
      ---------------------
 
      Charge (e):
                      =   -0.0000
      Dipole Moment (Debye):
      Origin of the operator (Ang)=    0.0000    0.0000    0.0000
                   X=  8.7749E-11               Y= -3.8993E-01               Z=  1.1559E-01           Total=  4.0670E-01
      Quadrupole Moment (Debye*Ang):
      Origin of the operator (Ang)=    0.0000    0.0000    0.0709
                  XX= -1.3958E+01              XY=  3.9911E-11              XZ= -2.5323E-11              YY= -1.6696E+01
                  YZ= -1.0735E+00              ZZ= -1.6221E+01
      In traceless form (Debye*Ang)
                  XX=  2.4998E+00              XY=  5.9867E-11              XZ= -3.7985E-11              YY= -1.6061E+00
                  YZ= -1.6103E+00              ZZ= -8.9371E-01
--
 
      Von Neumann Entropy (Root   3) =  1.28899
 

      Mulliken population analysis for root number:  3
      -----------------------------------------------
 
 
++    Molecular charges:
      ------------------
 
      Mulliken charges per centre and basis function type
      ---------------------------------------------------
 
                S1      H2      H3    
      1s       2.0000  1.0786  1.1734
      2s       2.0024  0.0000  0.0000
      2px      1.9999  0.0000  0.0000
      2pz      2.0000  0.0000  0.0000
      2py      2.0001  0.0000  0.0000
      3s       1.9816  0.0000  0.0000
      3px      0.9749  0.0000  0.0000
      3pz      1.7144  0.0000  0.0000
      3py      1.3807  0.0000  0.0000
      *s      -0.0728 -0.0381 -0.1081
      *px      0.0209  0.0017  0.0023
      *pz     -0.0754  0.0139  0.0154
      *py     -0.1342  0.0111  0.0113
      *d2+     0.0052  0.0000  0.0000
      *d1+     0.0003  0.0000  0.0000
      *d0      0.0085  0.0000  0.0000
      *d1-     0.0318  0.0000  0.0000
      *d2-     0.0000  0.0000  0.0000
      Total   15.8382  1.0673  1.0945
 
      N-E      0.1618 -0.0673 -0.0945
 
      Total electronic charge=   18.000000
 
      Total            charge=   -0.000000
--
 
 

      Expectation values of various properties for root number:  3
      -----------------------------------------------------------
 
 
++    Molecular properties:
      ---------------------
 
      Charge (e):
                      =   -0.0000
      Dipole Moment (Debye):
      Origin of the operator (Ang)=    0.0000    0.0000    0.0000
                   X=  2.8156E-11               Y=  1.4660E-01               Z= -1.0023E+00           Total=  1.0129E+00
      Quadrupole Moment (Debye*Ang):
      Origin of the operator (Ang)=    0.0000    0.0000    0.0709
                  XX= -1.4331E+01              XY=  3.2689E-12              XZ= -7.8352E-11              YY= -1.6686E+01
                  YZ=  5.3837E-01              ZZ= -1.8348E+01
      In traceless form (Debye*Ang)
                  XX=  3.1854E+00              XY=  4.9033E-12              XZ= -1.1753E-10              YY= -3.4604E-01
                  YZ=  8.0756E-01              ZZ= -2.8394E+00
--
 
      Von Neumann Entropy (Root   4) =  1.24363
 

      Mulliken population analysis for root number:  4
      -----------------------------------------------
 
 
++    Molecular charges:
      ------------------
 
      Mulliken charges per centre and basis function type
      ---------------------------------------------------
 
                S1      H2      H3    
      1s       2.0000  1.1873  0.8458
      2s       2.0024  0.0000  0.0000
      2px      1.9999  0.0000  0.0000
      2pz      2.0000  0.0000  0.0000
      2py      2.0001  0.0000  0.0000
      3s       1.9016  0.0000  0.0000
      3px      1.9366  0.0000  0.0000
      3pz      1.1443  0.0000  0.0000
      3py      1.1617  0.0000  0.0000
      *s      -0.0797  0.0191 -0.1165
      *px      0.0414  0.0034  0.0047
      *pz     -0.0701  0.0160  0.0086
      *py     -0.0812  0.0097  0.0075
      *d2+     0.0043  0.0000  0.0000
      *d1+     0.0005  0.0000  0.0000
      *d0      0.0062  0.0000  0.0000
      *d1-     0.0461  0.0000  0.0000
      *d2-     0.0000  0.0000  0.0000
      Total   16.0143  1.2355  0.7502
 
      N-E     -0.0143 -0.2355  0.2498
 
      Total electronic charge=   18.000000
 
      Total            charge=   -0.000000
--
 
 

      Expectation values of various properties for root number:  4
      -----------------------------------------------------------
 
 
++    Molecular properties:
      ---------------------
 
      Charge (e):
                      =   -0.0000
      Dipole Moment (Debye):
      Origin of the operator (Ang)=    0.0000    0.0000    0.0000
                   X=  1.4388E-10               Y= -1.8941E+00               Z= -2.2999E-01           Total=  1.9080E+00
      Quadrupole Moment (Debye*Ang):
      Origin of the operator (Ang)=    0.0000    0.0000    0.0709
                  XX= -1.7029E+01              XY=  2.6718E-11              XZ= -7.4387E-11              YY= -1.5530E+01
                  YZ= -5.4421E+00              ZZ= -1.5865E+01
      In traceless form (Debye*Ang)
                  XX= -1.3314E+00              XY=  4.0077E-11              XZ= -1.1158E-10              YY=  9.1627E-01
                  YZ= -8.1631E+00              ZZ=  4.1508E-01
--
 
      Von Neumann Entropy (Root   5) =  1.24439
 

      Mulliken population analysis for root number:  5
      -----------------------------------------------
 
 
++    Molecular charges:
      ------------------
 
      Mulliken charges per centre and basis function type
      ---------------------------------------------------
 
                S1      H2      H3    
      1s       2.0000  0.7958  1.2551
      2s       2.0024  0.0000  0.0000
      2px      1.9999  0.0000  0.0000
      2pz      2.0000  0.0000  0.0000
      2py      2.0001  0.0000  0.0000
      3s       1.9269  0.0000  0.0000
      3px      1.9430  0.0000  0.0000
      3pz      1.1574  0.0000  0.0000
      3py      1.1664  0.0000  0.0000
      *s      -0.0698 -0.0539 -0.0966
      *px      0.0416  0.0034  0.0047
      *pz     -0.0844  0.0079  0.0157
      *py     -0.0935  0.0071  0.0094
      *d2+     0.0035  0.0000  0.0000
      *d1+     0.0005  0.0000  0.0000
      *d0      0.0065  0.0000  0.0000
      *d1-     0.0507  0.0000  0.0000
      *d2-     0.0000  0.0000  0.0000
      Total   16.0512  0.7604  1.1884
 
      N-E     -0.0512  0.2396 -0.1884
 
      Total electronic charge=   18.000000
 
      Total            charge=   -0.000000
--
 
 

      Expectation values of various properties for root number:  5
      -----------------------------------------------------------
 
 
++    Molecular properties:
      ---------------------
 
      Charge (e):
                      =   -0.0000
      Dipole Moment (Debye):
      Origin of the operator (Ang)=    0.0000    0.0000    0.0000
                   X= -2.1616E-10               Y=  1.6668E+00               Z=  1.2780E-01           Total=  1.6717E+00
      Quadrupole Moment (Debye*Ang):
      Origin of the operator (Ang)=    0.0000    0.0000    0.0709
                  XX= -1.6924E+01              XY=  5.9434E-11              XZ= -2.0063E-11              YY= -1.5046E+01
                  YZ=  4.9177E+00              ZZ= -1.5315E+01
      In traceless form (Debye*Ang)
                  XX= -1.7433E+00              XY=  8.9151E-11              XZ= -3.0094E-11              YY=  1.0739E+00
                  YZ=  7.3765E+00              ZZ=  6.6939E-01
--
 
 
      Input file to MOLDEN was generated!
 
 
      Input file to MOLDEN was generated!
 
 
      Input file to MOLDEN was generated!
 
 
      Input file to MOLDEN was generated!
 
 
      Input file to MOLDEN was generated!
 
      Average orbitals are written to the RASORB file
      Natural orbitals for root   1 are written to the RASORB.1 file
      Natural orbitals for root   2 are written to the RASORB.2 file
      Natural orbitals for root   3 are written to the RASORB.3 file
      Natural orbitals for root   4 are written to the RASORB.4 file
      Natural orbitals for root   5 are written to the RASORB.5 file
      Spin density orbitals for root   1 are written to the SPDORB.1 file
      Spin density orbitals for root   2 are written to the SPDORB.2 file
      Spin density orbitals for root   3 are written to the SPDORB.3 file
      Spin density orbitals for root   4 are written to the SPDORB.4 file
      Spin density orbitals for root   5 are written to the SPDORB.5 file
 
 ###############################################################################
 ###############################################################################
 ###                                                                         ###
 ###                                                                         ###
 ###    WARNING: RunFile label BirthCertificate                              ###
 ###    was used       43 times                                              ###
 ###                                                                         ###
 ###                                                                         ###
 ###############################################################################
 ###############################################################################
--- Stop Module: rasscf at Fri Mar 15 22:19:11 2024 /rc=_RC_ALL_IS_WELL_ ---
--- Module rasscf spent 3 seconds ---

>>> COPY MOLCAS.rasscf.molden MOLCAS.1.molden

*** symbolic link created: INPORB -> MOLCAS.RasOrb
--- Start Module: caspt2 at Fri Mar 15 22:19:11 2024 ---
 
()()()()()()()()()()()()()()()()()()()()()()()()()()()()()()()()()()()()()()()()()()()()()()()()()()

                                              &CASPT2

                                   only a single process is used
                       available to each process: 10 GB of memory, 1 thread?
                                            pid: 1200389
()()()()()()()()()()()()()()()()()()()()()()()()()()()()()()()()()()()()()()()()()()()()()()()()()()
 
 
++    Wave function specifications:
      -----------------------------
 
      Number of closed shell electrons           0
      Number of electrons in active shells       8
      Max number of holes in RAS1 space          0
      Max number of electrons in RAS3 space      0
      Number of inactive orbitals                0
      Number of active orbitals                  6
      Number of secondary orbitals              17
      Spin quantum number                      0.0
      State symmetry                             1
      Number of CSFs                           105
      Number of CASSCF root(s) available         4
      CASPT2 state passed to geometry opt.       1
      A file JOBMIX will be created
      This is a MULTI-STATE CASSCF reference
      Number of CI roots used                    4
      These are:                                 1   2   3   4
      Off-diagonal elements of Heff are computed
--
 
++    Orbital specifications:
      -----------------------
 
      Symmetry species                           1
                                                 a
      Frozen orbitals                            5
      Inactive orbitals                          0
      Active orbitals                            6
      Secondary orbitals                        17
      Deleted orbitals                           0
      Number of basis functions                 28
--
 
++    CASPT2 specifications:
      ----------------------
 
      Type of calculation                        MS-CASPT2
      Fock operator                              state-specific
      IPEA shift                                 0.00
      Real shift                                 0.00
      Imaginary shift                            0.00
      The input orbitals will be transformed to quasi-canonical
--
 
--------------------------------------------------------------------------------
 Estimated memory requirements:
  POLY3 :                   257654
  RHS:                      259460
  SIGMA :                   264688
  PRPCTL:                        0
 Available workspace:   1124990510
 
++ CASPT2 computation for group   1
 
********************************************************************************
 Multi-State initialization phase begins for group   1
--------------------------------------------------------------------------------
********************************************************************************
 Compute H0 matrices for state    1
--------------------------------------------------------------------------------
--------------------------------------------------------------------------------
 H0 matrices have been computed.
 
********************************************************************************
  CASPT2 EQUATION SOLUTION
--------------------------------------------------------------------------------
 
  Total nr of CASPT2 parameters:
   Before reduction:        8925
   After  reduction:        8466
 
 Variance of |WF0>:       0.3198061933
 
 The contributions to the second order correlation energy in atomic units.
-----------------------------------------------------------------------------------------------------------------------------
  IT.      VJTU        VJTI        ATVX        AIVX        VJAI        BVAT        BJAT        BJAI        TOTAL       RNORM  
-----------------------------------------------------------------------------------------------------------------------------
   1     0.000000    0.000000   -0.043557    0.000000    0.000000   -0.082067    0.000000    0.000000   -0.125624    0.000837
   2     0.000000    0.000000   -0.043643    0.000000    0.000000   -0.082065    0.000000    0.000000   -0.125708    0.000039
   3     0.000000    0.000000   -0.043645    0.000000    0.000000   -0.082066    0.000000    0.000000   -0.125710    0.000002
-----------------------------------------------------------------------------------------------------------------------------
 
  FINAL CASPT2 RESULT:
 
      Reference energy:        -398.6937331042
      E2 (Non-variational):      -0.1257103989
      E2 (Variational):          -0.1257103966
      Total energy:            -398.8194435008
      Residual norm:              0.0000000921
      Reference weight:           0.94997
 
      Contributions to the CASPT2 correlation energy
      Active & Virtual Only:         -0.1257103989
      One Inactive Excited:           0.0000000000
      Two Inactive Excited:           0.0000000000
 
 
++ Denominators, etc.
--------------------------------------------------------------------------------------------------------------
 Report on small energy denominators, large coefficients, and large energy contributions.
CASE  SYMM ACTIVE-MIX  NON-ACTIVE INDICES          DENOMINATOR     RHS VALUE       COEFFICIENT     CONTRIBUTION
ATVX     1  Mu1.0016  Se1.013                       1.62801075     -0.04761880      0.02860602     -0.00136218
ATVX     1  Mu1.0009  Se1.015                       1.64560277     -0.05216053      0.03077029     -0.00160499
ATVX     1  Mu1.0017  Se1.016                       1.80319717     -0.07202046      0.03959522     -0.00285167
ATVX     1  Mu1.0009  Se1.018                       1.73533789     -0.04586555      0.02625759     -0.00120432
ATVX     1  Mu1.0007  Se1.019                       1.73858280     -0.06432014      0.03671387     -0.00236144
BVATP    1  Mu1.0001  Se1.015 Se1.015               2.14032514      0.07416173     -0.03453490     -0.00256117
BVATP    1  Mu1.0001  Se1.018 Se1.018               2.31979538      0.07646181     -0.03295809     -0.00252004
BVATP    1  Mu1.0001  Se1.019 Se1.019               2.34441612      0.07736528     -0.03299598     -0.00255274
BVATM    1  Mu1.0001  Se1.015 Se1.014               2.21297964      0.05986520     -0.02630309     -0.00157464
BVATM    1  Mu1.0001  Se1.018 Se1.013               2.20089541     -0.07359227      0.03267002     -0.00240426
BVATM    1  Mu1.0002  Se1.019 Se1.013               2.22188877     -0.05738298      0.02537639     -0.00145617
BVATM    1  Mu1.0002  Se1.019 Se1.016               2.39707519     -0.06435799      0.02671778     -0.00171950
BVATM    1  Mu1.0002  Se1.020 Se1.019               2.45646683      0.06057334     -0.02503434     -0.00151641
--
 
   (Skipping property calculation,
    use PROP keyword to activate)
--
 
++ CASPT2 computation for group   2
 
********************************************************************************
 Multi-State initialization phase begins for group   2
--------------------------------------------------------------------------------
********************************************************************************
 Compute H0 matrices for state    2
--------------------------------------------------------------------------------
--------------------------------------------------------------------------------
 H0 matrices have been computed.
 
********************************************************************************
  CASPT2 EQUATION SOLUTION
--------------------------------------------------------------------------------
 
  Total nr of CASPT2 parameters:
   Before reduction:        8925
   After  reduction:        7820
 
 Variance of |WF0>:       0.3201782624
 
 The contributions to the second order correlation energy in atomic units.
-----------------------------------------------------------------------------------------------------------------------------
  IT.      VJTU        VJTI        ATVX        AIVX        VJAI        BVAT        BJAT        BJAI        TOTAL       RNORM  
-----------------------------------------------------------------------------------------------------------------------------
   1     0.000000    0.000000   -0.056445    0.000000    0.000000   -0.079422    0.000000    0.000000   -0.135867    0.000921
   2     0.000000    0.000000   -0.056542    0.000000    0.000000   -0.079426    0.000000    0.000000   -0.135968    0.000053
   3     0.000000    0.000000   -0.056545    0.000000    0.000000   -0.079427    0.000000    0.000000   -0.135972    0.000003
-----------------------------------------------------------------------------------------------------------------------------
 
  FINAL CASPT2 RESULT:
 
      Reference energy:        -398.5086709038
      E2 (Non-variational):      -0.1359715684
      E2 (Variational):          -0.1359715618
      Total energy:            -398.6446424656
      Residual norm:              0.0000001574
      Reference weight:           0.93905
 
      Contributions to the CASPT2 correlation energy
      Active & Virtual Only:         -0.1359715684
      One Inactive Excited:           0.0000000000
      Two Inactive Excited:           0.0000000000
 
 
++ Denominators, etc.
--------------------------------------------------------------------------------------------------------------
 Report on small energy denominators, large coefficients, and large energy contributions.
CASE  SYMM ACTIVE-MIX  NON-ACTIVE INDICES          DENOMINATOR     RHS VALUE       COEFFICIENT     CONTRIBUTION
ATVX     1  Mu1.0001  Se1.012                       0.48172674      0.01292448     -0.02666129     -0.00034458
ATVX     1  Mu1.0026  Se1.013                       1.48444244      0.07356971     -0.04925619     -0.00362376
ATVX     1  Mu1.0030  Se1.016                       1.71060742      0.04685637     -0.02742893     -0.00128522
ATVX     1  Mu1.0001  Se1.017                       0.71008774      0.03101653     -0.04333347     -0.00134405
ATVX     1  Mu1.0049  Se1.018                       1.95765655      0.05834941     -0.02968992     -0.00173239
ATVX     1  Mu1.0051  Se1.019                       1.99225184      0.07581234     -0.03792678     -0.00287532
ATVX     1  Mu1.0007  Se1.020                       1.24426349      0.04203372     -0.03353219     -0.00140948
ATVX     1  Mu1.0026  Se1.020                       1.69003390      0.05122623     -0.03016686     -0.00154533
ATVX     1  Mu1.0008  Se1.021                       1.55053772      0.04674509     -0.02968419     -0.00138759
ATVX     1  Mu1.0009  Se1.021                       1.55053772      0.06134633     -0.03942452     -0.00241855
ATVX     1  Mu1.0011  Se1.021                       1.68152017     -0.04701647      0.02720002     -0.00127885
ATVX     1  Mu1.0007  Se1.022                       1.56037679      0.06006564     -0.03822450     -0.00229598
BVATP    1  Mu1.0009  Se1.016 Se1.016               2.49600460     -0.06641901      0.02653651     -0.00176253
BVATM    1  Mu1.0003  Se1.018 Se1.013               2.05483583     -0.06236114      0.02975908     -0.00185581
--
 
   (Skipping property calculation,
    use PROP keyword to activate)
--
 
++ CASPT2 computation for group   3
 
********************************************************************************
 Multi-State initialization phase begins for group   3
--------------------------------------------------------------------------------
********************************************************************************
 Compute H0 matrices for state    3
--------------------------------------------------------------------------------
--------------------------------------------------------------------------------
 H0 matrices have been computed.
 
********************************************************************************
  CASPT2 EQUATION SOLUTION
--------------------------------------------------------------------------------
 
  Total nr of CASPT2 parameters:
   Before reduction:        8925
   After  reduction:        7820
 
 Variance of |WF0>:       0.3166395745
 
 The contributions to the second order correlation energy in atomic units.
-----------------------------------------------------------------------------------------------------------------------------
  IT.      VJTU        VJTI        ATVX        AIVX        VJAI        BVAT        BJAT        BJAI        TOTAL       RNORM  
-----------------------------------------------------------------------------------------------------------------------------
   1     0.000000    0.000000   -0.059921    0.000000    0.000000   -0.080350    0.000000    0.000000   -0.140272    0.001224
   2     0.000000    0.000000   -0.060052    0.000000    0.000000   -0.080377    0.000000    0.000000   -0.140430    0.000069
   3     0.000000    0.000000   -0.060055    0.000000    0.000000   -0.080379    0.000000    0.000000   -0.140434    0.000003
-----------------------------------------------------------------------------------------------------------------------------
 
  FINAL CASPT2 RESULT:
 
      Reference energy:        -398.4765274069
      E2 (Non-variational):      -0.1404341772
      E2 (Variational):          -0.1404341665
      Total energy:            -398.6169615735
      Residual norm:              0.0000002322
      Reference weight:           0.92952
 
      Contributions to the CASPT2 correlation energy
      Active & Virtual Only:         -0.1404341772
      One Inactive Excited:           0.0000000000
      Two Inactive Excited:           0.0000000000
 
 
++ Denominators, etc.
--------------------------------------------------------------------------------------------------------------
 Report on small energy denominators, large coefficients, and large energy contributions.
CASE  SYMM ACTIVE-MIX  NON-ACTIVE INDICES          DENOMINATOR     RHS VALUE       COEFFICIENT     CONTRIBUTION
ATVX     1  Mu1.0012  Se1.012                       1.05448398      0.02752877     -0.02577870     -0.00070966
ATVX     1  Mu1.0001  Se1.013                       0.49315482      0.04779536     -0.09572689     -0.00457530
ATVX     1  Mu1.0030  Se1.013                       1.47178969     -0.06385540      0.04284886     -0.00273613
ATVX     1  Mu1.0042  Se1.013                       1.63908031      0.04264120     -0.02559695     -0.00109148
ATVX     1  Mu1.0001  Se1.014                       0.55516543     -0.02165291      0.03763002     -0.00081480
ATVX     1  Mu1.0043  Se1.016                       1.78764743      0.05646400     -0.03173823     -0.00179207
ATVX     1  Mu1.0001  Se1.017                       0.65362528      0.01669364     -0.02501608     -0.00041761
ATVX     1  Mu1.0002  Se1.018                       0.93402707     -0.02663626      0.02713913     -0.00072289
ATVX     1  Mu1.0004  Se1.018                       0.95473599     -0.02597046      0.02653469     -0.00068912
ATVX     1  Mu1.0055  Se1.018                       1.96135187     -0.07067732      0.03590705     -0.00253781
ATVX     1  Mu1.0003  Se1.019                       0.94783543      0.02690088     -0.02769746     -0.00074509
ATVX     1  Mu1.0053  Se1.019                       1.94379768     -0.07487996      0.03835156     -0.00287176
ATVX     1  Mu1.0030  Se1.020                       1.67640791     -0.06492157      0.03843055     -0.00249497
ATVX     1  Mu1.0009  Se1.022                       1.55195253      0.04507608     -0.02836464     -0.00127857
BVATP    1  Mu1.0007  Se1.016 Se1.016               2.40099501     -0.06201602      0.02577746     -0.00159862
BVATM    1  Mu1.0007  Se1.016 Se1.012               2.21531339     -0.05949760      0.02625637     -0.00156219
BVATM    1  Mu1.0004  Se1.018 Se1.013               2.06406056      0.06177391     -0.02921005     -0.00180442
--
 
   (Skipping property calculation,
    use PROP keyword to activate)
--
 
++ CASPT2 computation for group   4
 
********************************************************************************
 Multi-State initialization phase begins for group   4
--------------------------------------------------------------------------------
********************************************************************************
 Compute H0 matrices for state    4
--------------------------------------------------------------------------------
--------------------------------------------------------------------------------
 H0 matrices have been computed.
 
********************************************************************************
  CASPT2 EQUATION SOLUTION
--------------------------------------------------------------------------------
 
  Total nr of CASPT2 parameters:
   Before reduction:        8925
   After  reduction:        8466
 
 Variance of |WF0>:       0.3116850860
 
 The contributions to the second order correlation energy in atomic units.
-----------------------------------------------------------------------------------------------------------------------------
  IT.      VJTU        VJTI        ATVX        AIVX        VJAI        BVAT        BJAT        BJAI        TOTAL       RNORM  
-----------------------------------------------------------------------------------------------------------------------------
   1     0.000000    0.000000   -0.052160    0.000000    0.000000   -0.085150    0.000000    0.000000   -0.137310    0.000965
   2     0.000000    0.000000   -0.052263    0.000000    0.000000   -0.085171    0.000000    0.000000   -0.137434    0.000058
   3     0.000000    0.000000   -0.052265    0.000000    0.000000   -0.085172    0.000000    0.000000   -0.137437    0.000004
-----------------------------------------------------------------------------------------------------------------------------
 
  FINAL CASPT2 RESULT:
 
      Reference energy:        -398.3546286206
      E2 (Non-variational):      -0.1374367773
      E2 (Variational):          -0.1374367677
      Total energy:            -398.4920653883
      Residual norm:              0.0000002522
      Reference weight:           0.93566
 
      Contributions to the CASPT2 correlation energy
      Active & Virtual Only:         -0.1374367773
      One Inactive Excited:           0.0000000000
      Two Inactive Excited:           0.0000000000
 
 
++ Denominators, etc.
--------------------------------------------------------------------------------------------------------------
 Report on small energy denominators, large coefficients, and large energy contributions.
CASE  SYMM ACTIVE-MIX  NON-ACTIVE INDICES          DENOMINATOR     RHS VALUE       COEFFICIENT     CONTRIBUTION
ATVX     1  Mu1.0004  Se1.012                       0.82223708      0.02861230     -0.03505813     -0.00100309
ATVX     1  Mu1.0013  Se1.012                       0.92719307     -0.02638894      0.02884819     -0.00076127
ATVX     1  Mu1.0034  Se1.012                       1.37754903     -0.05276146      0.03819813     -0.00201539
ATVX     1  Mu1.0004  Se1.013                       0.92517389      0.02396212     -0.02584447     -0.00061929
ATVX     1  Mu1.0054  Se1.016                       1.72154648      0.05197260     -0.03015216     -0.00156709
ATVX     1  Mu1.0035  Se1.018                       1.66065204      0.06543754     -0.03931464     -0.00257265
ATVX     1  Mu1.0078  Se1.018                       2.15133815      0.05566955     -0.02555699     -0.00142275
ATVX     1  Mu1.0001  Se1.020                       0.72082623      0.01995038     -0.02672785     -0.00053323
ATVX     1  Mu1.0013  Se1.021                       1.48964844      0.04773085     -0.03184313     -0.00151990
ATVX     1  Mu1.0013  Se1.022                       1.55368049      0.06786026     -0.04303152     -0.00292013
BVATP    1  Mu1.0005  Se1.015 Se1.015               2.13858306     -0.07015711      0.03280355     -0.00230140
BVATP    1  Mu1.0005  Se1.018 Se1.018               2.27931473     -0.06891832      0.03022173     -0.00208283
BVATP    1  Mu1.0005  Se1.019 Se1.019               2.34904645     -0.07356015      0.03131055     -0.00230321
BVATP    1  Mu1.0012  Se1.019 Se1.019               2.53782671      0.06411170     -0.02526178     -0.00161958
BVATM    1  Mu1.0006  Se1.019 Se1.013               2.24913465      0.07777633     -0.03435664     -0.00267213
--
 
   (Skipping property calculation,
    use PROP keyword to activate)
--
 
  Total CASPT2 energies:
::    CASPT2 Root  1     Total energy:   -398.81944350
::    CASPT2 Root  2     Total energy:   -398.64464247
::    CASPT2 Root  3     Total energy:   -398.61696157
::    CASPT2 Root  4     Total energy:   -398.49206539
 
++ Multi-State CASPT2 section:
********************************************************************************
  MULTI-STATE CASPT2 SECTION
--------------------------------------------------------------------------------
 
  Output diagonal energies have been shifted. Add   -398.000000000000     
 
  Effective Hamiltonian matrix (Symmetric):
 
                1               2               3               4
   1        -0.81944350
   2        -0.00000000     -0.64464247
   3        -0.00000000      0.00295425     -0.61696157
   4         0.00195014      0.00000000     -0.00000000     -0.49206539
 
       Total MS-CASPT2 energies:
::    MS-CASPT2 Root  1     Total energy:   -398.81945512
::    MS-CASPT2 Root  2     Total energy:   -398.64495425
::    MS-CASPT2 Root  3     Total energy:   -398.61664979
::    MS-CASPT2 Root  4     Total energy:   -398.49205377
 
       Eigenvectors:
            0.99998226     -0.00000000     -0.00000000      0.00595651
            0.00000000      0.99447712      0.10495362      0.00000000
            0.00000000     -0.10495362      0.99447712     -0.00000000
           -0.00595651     -0.00000000      0.00000000      0.99998226
 
--
 
  THE ORIGINAL CI ARRAYS ARE NOW MIXED AS LINEAR
  COMBINATIONS, GIVEN BY THE EIGENVECTORS.
  A NEW JOBIPH FILE NAMED 'JOBMIX' IS PREPARED.
********************************************************************************
 
++ Mixed CI coefficients:
  The CI coefficients for the MIXED state nr.   1
--------------------------------------------------------------------------------
 CI COEFFICIENTS LARGER THAN  0.10D+00
  Occupation of active orbitals, and spin coupling
  of open shells. (u,d: Spin up or down).
  SGUGA info is (Midvert:IsyUp:UpperWalk/LowerWalk)
        Conf  SGUGA info        Occupation    Coefficient         Weight
           1  ( 1:1:   1/   1)   222200         -0.968750       0.938476
          17  ( 2:1:   3/   2)   2u220d         -0.136035       0.018506
          31  ( 3:1:   1/   1)   220220          0.133608       0.017851
          52  ( 3:1:   4/   4)   202202          0.121163       0.014681
 
  The CI coefficients for the MIXED state nr.   2
--------------------------------------------------------------------------------
 CI COEFFICIENTS LARGER THAN  0.10D+00
  Occupation of active orbitals, and spin coupling
  of open shells. (u,d: Spin up or down).
  SGUGA info is (Midvert:IsyUp:UpperWalk/LowerWalk)
        Conf  SGUGA info        Occupation    Coefficient         Weight
           2  ( 1:1:   2/   1)   222ud0          0.678357       0.460168
           4  ( 1:1:   4/   1)   222u0d         -0.696332       0.484878
           8  ( 2:1:   2/   1)   22ud20          0.139032       0.019330
 
  The CI coefficients for the MIXED state nr.   3
--------------------------------------------------------------------------------
 CI COEFFICIENTS LARGER THAN  0.10D+00
  Occupation of active orbitals, and spin coupling
  of open shells. (u,d: Spin up or down).
  SGUGA info is (Midvert:IsyUp:UpperWalk/LowerWalk)
        Conf  SGUGA info        Occupation    Coefficient         Weight
           2  ( 1:1:   2/   1)   222ud0         -0.673933       0.454186
           4  ( 1:1:   4/   1)   222u0d         -0.679655       0.461931
           8  ( 2:1:   2/   1)   22ud20         -0.172308       0.029690
          21  ( 2:1:   7/   2)   2u2d02          0.136126       0.018530
          33  ( 3:1:   3/   1)   220u2d         -0.107045       0.011459
          53  ( 3:1:   5/   4)   202ud2          0.102504       0.010507
 
  The CI coefficients for the MIXED state nr.   4
--------------------------------------------------------------------------------
 CI COEFFICIENTS LARGER THAN  0.10D+00
  Occupation of active orbitals, and spin coupling
  of open shells. (u,d: Spin up or down).
  SGUGA info is (Midvert:IsyUp:UpperWalk/LowerWalk)
        Conf  SGUGA info        Occupation    Coefficient         Weight
           9  ( 2:1:   3/   1)   22u20d          0.936763       0.877525
          15  ( 2:1:   1/   2)   2u22d0         -0.192410       0.037022
          32  ( 3:1:   2/   1)   2202ud         -0.166997       0.027888
          40  ( 3:1:   4/   2)   2ud202         -0.132451       0.017543
 
--
 
--- Stop Module: caspt2 at Fri Mar 15 22:19:12 2024 /rc=_RC_ALL_IS_WELL_ ---

>>> COPY MOLCAS.JobMix MOLCAS.1.JobIph

*** symbolic link created: INPORB -> MOLCAS.RasOrb
--- Start Module: rasscf at Fri Mar 15 22:19:12 2024 ---
 
()()()()()()()()()()()()()()()()()()()()()()()()()()()()()()()()()()()()()()()()()()()()()()()()()()

                                              &RASSCF

                                   only a single process is used
                       available to each process: 10 GB of memory, 1 thread?
                                            pid: 1200392
()()()()()()()()()()()()()()()()()()()()()()()()()()()()()()()()()()()()()()()()()()()()()()()()()()
 
 
      Header of the ONEINT file:
      --------------------------
      
      Integrals generated by Gateway/Seward, Fri Mar 15 22:19:07 2024
 
 
      OrdInt status: non-squared
 
 
      Cartesian coordinates in Angstrom:
      -----------------------------------------------------
      No.  Label        X            Y            Z        
      -----------------------------------------------------
       1   S1         0.00000000   0.00000000   0.00084100
       2   H2         0.00000000   0.97479900   1.18293400
       3   H3         0.00000000  -0.97479900   1.18293400
      -----------------------------------------------------
      Nuclear repulsion energy =   11.32343694
 
++    Wave function specifications:
      -----------------------------
 
      Number of closed shell electrons          10
      Number of electrons in active shells       7
      Max number of holes in RAS1 space          0
      Max nr of electrons in RAS3 space          0
      Number of inactive orbitals                5
      Number of active orbitals                  6
      Number of secondary orbitals              17
      Spin quantum number                      0.5
      State symmetry                             1
--
 
++    Orbital specifications:
      -----------------------
 
      Symmetry species                           1
                                                 a
      Frozen orbitals                            0
      Inactive orbitals                          5
      Active orbitals                            6
      RAS1 orbitals                              0
      RAS2 orbitals                              6
      RAS3 orbitals                              0
      Secondary orbitals                        17
      Deleted orbitals                           0
      Number of basis functions                 28
--
 
++    CI expansion specifications:
      ----------------------------
 
      Number of CSFs                           210
      Number of determinants                   300
      Number of root(s) required                 2
      Root chosen for geometry opt.              2
      CI roots used                              1     2
      weights                                0.500 0.500
      highest root included in the CI            2
      max. size of the explicit Hamiltonian    200
--
 
++    Optimization specifications:
      ----------------------------
 
      RASSCF algorithm: LK RI/DF
      Maximum number of macro iterations       200
      Maximum number of SX iterations          100
      Threshold for RASSCF energy            0.100E-07
      Threshold for max MO rotation          0.100E-03
      Threshold for max BLB element          0.100E-03
      Level shift parameter                  0.500E+00
      Make Quasi-Newton update
--
 
      Orbitals from runfile: rasscf orbitals
      The MO-coefficients are taken from rasscf orbitals on runfile
 
      Total molecular charge    1.00
 
      ************************************************************************************************************************
      *                                                                                                                      *
      *                                            Wave function control section                                             *
      *                                                                                                                      *
      ************************************************************************************************************************
 
 
                                         RASSCF iterations: Energy and convergence statistics
                                         ----------------------------------------------------
 
      Iter CI   SX   CI       RASSCF       Energy    max ROT     max BLB   max BLB  Level Ln srch  Step   QN   Walltime
          iter iter root      energy       change     param      element    value   shift minimum  type update hh:mm:ss
 Nr of preliminary CI iterations:   2
        1   1   56    0  -398.27180140    0.00E+00   0.23E+00*   9  15 1  0.80E-01*  0.00   0.00    SX    NO    0:00:00
        2   3   12    0  -398.30257480   -0.31E-01*  0.62E-01*   7  21 1 -0.87E-02*  0.00   0.00    SX    NO    0:00:00
        3   3   11    0  -398.30450165   -0.19E-02* -0.27E-01*   7  12 1 -0.39E-02*  0.00   0.00    SX    NO    0:00:00
        4   3   10    0  -398.30479423   -0.29E-03*  0.13E-01*   7  12 1 -0.14E-02*  0.00   0.00    SX    NO    0:00:00
        5   3   10    0  -398.30486074   -0.67E-04*  0.13E-01*   7  12 1 -0.62E-03*  0.00   2.11    LS   YES    0:00:00
        6   3   10    0  -398.30488608   -0.25E-04* -0.51E-02*   7  21 1  0.30E-03*  0.00   1.05    QN   YES    0:00:00
        7   3    9    0  -398.30489262   -0.65E-05* -0.74E-02*   7  12 1  0.18E-03*  0.00   2.50    LS   YES    0:00:00
        8   3    9    0  -398.30489624   -0.36E-05* -0.76E-03*   7  21 1 -0.31E-03*  0.00   1.02    QN   YES    0:00:00
        9   3    8    0  -398.30489674   -0.50E-06* -0.48E-03*   7  21 1 -0.86E-04   0.00   1.35    QN   YES    0:00:00
       10   3    6    0  -398.30489681   -0.65E-07*  0.90E-04    9  15 1 -0.13E-04   0.00   1.11    QN   YES    0:00:00
       11   1    4    0  -398.30489681   -0.24E-08   0.66E-04    7  21 1  0.46E-05   0.00   2.50    QN   YES    0:00:00
      Convergence after 11 iterations
       12   1    4    0  -398.30489681   -0.44E-09   0.66E-04    6  14 1 -0.15E-05   0.00   2.50    QN   YES    0:00:00
 
      ************************************************************************************************************************
                                                      Wave function printout:
                       occupation of active orbitals, and spin coupling of open shells (u,d: Spin up or down)
      ************************************************************************************************************************
 
      Note: transformation to natural orbitals
      has been made, which may change the order of the CSFs.
 
      printout of CI-coefficients larger than  0.05 for root  1
      energy=    -398.370399
      conf/sym  111111     Coeff  Weight
             1  222u00  -0.97458 0.94981
            14  2u2du0  -0.06176 0.00381
            26  u22d0u  -0.05309 0.00282
            32  220u20  -0.07164 0.00513
            37  220u02  -0.06330 0.00401
            42  2ududu  -0.06134 0.00376
            44  2uduud  -0.09942 0.00988
            56  202u20  -0.10693 0.01143
 
      printout of CI-coefficients larger than  0.05 for root  2
      energy=    -398.239395
      conf/sym  111111     Coeff  Weight
             4  22u200  -0.97423 0.94913
            39  2ud2u0   0.06372 0.00406
            49  u2d20u   0.06840 0.00468
            57  20220u   0.07139 0.00510
            63  ud22u0   0.07958 0.00633
           107  2u02du  -0.05248 0.00275
           109  2u02ud  -0.05782 0.00334
           124  20u220  -0.10810 0.01169
           129  20u202  -0.05017 0.00252
           136  udu2ud  -0.05389 0.00290
 
      Natural orbitals and occupation numbers for root  1
      sym 1:   1.994836   1.950583   1.960836   1.000000   0.056261   0.037484
 
      Natural orbitals and occupation numbers for root  2
      sym 1:   1.977851   1.938957   1.006335   1.997830   0.047713   0.031314
 
      ************************************************************************************************************************
      *                                                                                                                      *
      *                                                    Final results                                                     *
      *                                                                                                                      *
      ************************************************************************************************************************
 
 
++    Wave function specifications:
      -----------------------------
 
      Number of closed shell electrons          10
      Number of electrons in active shells       7
      Max number of holes in RAS1 space          0
      Max nr of electrons in RAS3 space          0
      Number of inactive orbitals                5
      Number of active orbitals                  6
      Number of secondary orbitals              17
      Spin quantum number                      0.5
      State symmetry                             1
--
 
++    Orbital specifications:
      -----------------------
 
      Symmetry species                           1
                                                 a
      Frozen orbitals                            0
      Inactive orbitals                          5
      Active orbitals                            6
      RAS1 orbitals                              0
      RAS2 orbitals                              6
      RAS3 orbitals                              0
      Secondary orbitals                        17
      Deleted orbitals                           0
      Number of basis functions                 28
--
 
++    CI expansion specifications:
      ----------------------------
 
      Number of CSFs                           210
      Number of determinants                   300
      Number of root(s) required                 2
      CI roots used                              1     2
      weights                                0.500 0.500
      highest root included in the CI            2
      Root passed to geometry opt.               2
--
 
++    Final optimization conditions:
      ------------------------------
 
      Average CI energy                            -398.30489681
      RASSCF energy for state  2                   -398.23939487
      Super-CI energy                                -0.00000000
      RASSCF energy change                            0.00000000
      Max change in MO coefficients               0.776E-04
      Max non-diagonal density matrix element     0.656E-04
      Maximum BLB matrix element                 -0.148E-05
      (orbital pair   6,  14 in symmetry   1)
      Norm of electronic gradient            0.472E-01
--
 
 
      Final state energy(ies):
      ------------------------
 
::    RASSCF root number  1 Total energy:   -398.37039876
::    RASSCF root number  2 Total energy:   -398.23939487
 
++    Molecular orbitals:
      -------------------
 
      Pseudonatural active orbitals and approximate occupation numbers
 
 
 
 
      Molecular orbitals for symmetry species 1: a  
 
 
      Orbital                 1         2         3         4         5         6         7         8         9        10
      Energy           -92.3628   -9.3574   -7.0373   -7.0367   -7.0358   -1.2615   -0.0010    0.0000   -0.0010    0.0396
      Occ. No.           2.0000    2.0000    2.0000    2.0000    2.0000    1.9839    1.9444    1.4860    1.4989    0.0524
 
     1 S1     1s         1.0000    0.0002    0.0000   -0.0000   -0.0000    0.0035    0.0000   -0.0033    0.0000   -0.0000
     2 S1     2s         0.0001    1.0011   -0.0018    0.0000   -0.0000    0.0245    0.0000   -0.0299    0.0000   -0.0000
     3 S1     3s         0.0003    0.0025    0.0061   -0.0000    0.0000    0.9771    0.0000   -0.4451    0.0000   -0.0000
     4 S1     *s        -0.0003   -0.0047   -0.0018    0.0000    0.0000   -0.1057    0.0000    0.0146   -0.0000    0.0000
     5 S1     2px        0.0000   -0.0000   -0.0000   -0.0000    0.9999   -0.0000   -0.0000    0.0000    0.0095    0.0000
     6 S1     3px        0.0000   -0.0000    0.0000    0.0000   -0.0015   -0.0000   -0.0000    0.0000    1.0798    0.0000
     7 S1     *px       -0.0000    0.0000   -0.0000   -0.0000    0.0012    0.0000    0.0000    0.0000   -0.0960   -0.0000
     8 S1     2py       -0.0000   -0.0000    0.0002    1.0000    0.0000    0.0000   -0.0032    0.0000   -0.0000    0.0573
[...]
     3         0.00000000       0.00000000    
     4         0.00000000       0.00000000    
     5       -0.151753511E-24 -0.100367351E-13
     6        0.100367351E-13  0.649469956E-24
 
 
 PROPERTY: AMFI       COMPONENT:*   2
 ORIGIN    :   0.00000000D+00   0.00000000D+00   0.00000000D+00
 STATE     :       1                2                3                4
 
     1         0.00000000       0.00000000       0.00000000       0.00000000    
     2         0.00000000       0.00000000       0.00000000       0.00000000    
     3         0.00000000       0.00000000       0.00000000       0.00000000    
     4         0.00000000       0.00000000       0.00000000       0.00000000    
     5         0.00000000       0.00000000       0.00000000       0.00000000    
     6         0.00000000       0.00000000       0.00000000       0.00000000    
 
 
 PROPERTY: AMFI       COMPONENT:*   2
 ORIGIN    :   0.00000000D+00   0.00000000D+00   0.00000000D+00
 STATE     :       5                6
 
     1         0.00000000       0.00000000    
     2         0.00000000       0.00000000    
     3         0.00000000       0.00000000    
     4         0.00000000       0.00000000    
     5       -0.583117839E-30  0.175899900E-02
     6       -0.175899900E-02  0.175443241E-29
 
 
 PROPERTY: AMFI       COMPONENT:*   3
 ORIGIN    :   0.00000000D+00   0.00000000D+00   0.00000000D+00
 STATE     :       1                2                3                4
 
     1         0.00000000       0.00000000       0.00000000       0.00000000    
     2         0.00000000       0.00000000       0.00000000       0.00000000    
     3         0.00000000       0.00000000       0.00000000       0.00000000    
     4         0.00000000       0.00000000       0.00000000       0.00000000    
     5         0.00000000       0.00000000       0.00000000       0.00000000    
     6         0.00000000       0.00000000       0.00000000       0.00000000    
 
 
 PROPERTY: AMFI       COMPONENT:*   3
 ORIGIN    :   0.00000000D+00   0.00000000D+00   0.00000000D+00
 STATE     :       5                6
 
     1         0.00000000       0.00000000    
     2         0.00000000       0.00000000    
     3         0.00000000       0.00000000    
     4         0.00000000       0.00000000    
     5       -0.475144648E-29 -0.800249789E-07
     6        0.800249789E-07  0.304459886E-29
 
--
 
::    RASSI State    1     Total energy:    -398.81945511705902
::    RASSI State    2     Total energy:    -398.64495424656741
::    RASSI State    3     Total energy:    -398.61664979244608
::    RASSI State    4     Total energy:    -398.49205377209728
::    RASSI State    5     Total energy:    -398.46478966084777
::    RASSI State    6     Total energy:    -398.33652668301966
 
 
 
      ****************************************************************************************************
      *                                                                                                  *
      *                                         Spin-free section                                        *
      *                                                                                                  *
      *                 Note: index according to input order, order according to energy.                 *
      *                                                                                                  *
      ****************************************************************************************************
 
 
 
  SPIN-FREE ENERGIES:
  (Shifted by EMIN (a.u.) =       -398.8194551171)
 
 SF State       Relative EMIN(au)   Rel lowest level(eV)    D:o, cm**(-1)
 
     1             0.0000000000        0.0000000000              0.0000
     2             0.1745008705        4.7484105872          38298.5142
     3             0.2028053246        5.5186140208          44510.6239
     4             0.3274013450        8.9090444552          71856.2895
     5             0.3546654562        9.6509387171          77840.0703
     6             0.4829284340       13.1411521478         105990.5400
 
++ Dipole transition strengths (spin-free states):
   -----------------------------------------------
     for osc. strength at least  1.00000000E-05
 
      From   To        Osc. strength     Einstein coefficients Ax, Ay, Az (sec-1)    Total A (sec-1)
     -----------------------------------------------------------------------------------------------
         1    3       2.55543458E-04  3.37702564E+05  2.81973063E-13  1.48948727E-13  3.37702564E+05
         1    4       1.29639201E-02  7.60313829E-14  6.16061756E+06  3.84880136E+07  4.46486311E+07
         2    3       5.96059666E-03  7.13240954E-16  1.52786197E+05  6.43767700E+02  1.53429965E+05
         2    4       1.03425126E-03  7.76881191E+05  3.94960467E-15  8.86840640E-18  7.76881191E+05
         3    4       3.92947232E-03  1.95998821E+06  2.03927043E-15  4.79114364E-17  1.95998821E+06
         5    6       8.51440142E-03  4.50057126E+06  1.17662666E-15  1.77427228E-15  4.50057126E+06
     -----------------------------------------------------------------------------------------------
--
 
++ Velocity transition strengths (spin-free states):
   -------------------------------------------------
     for osc. strength at least  1.00000000E-05
 
      From   To        Osc. strength     Einstein coefficients Ax, Ay, Az (sec-1)    Total A (sec-1)
     -----------------------------------------------------------------------------------------------
         1    3       3.43907505E-03  4.54476303E+06  2.54089414E-12  1.24933184E-13  4.54476303E+06
         1    4       1.58710926E-02  6.34582884E-15  2.36520499E+06  5.22959279E+07  5.46611329E+07
         2    3       7.87364282E-04  5.34984579E-14  1.96126198E+04  6.54692498E+02  2.02673123E+04
         2    4       5.42759030E-04  4.07695208E+05  5.81260782E-14  8.08207092E-14  4.07695208E+05
         3    4       9.26534988E-03  4.62147970E+06  2.39575554E-13  4.03909824E-14  4.62147970E+06
         5    6       1.97344440E-02  1.04312995E+07  5.49078585E-18  8.96022348E-15  1.04312995E+07
     -----------------------------------------------------------------------------------------------
--
 
++ Length and velocity gauge comparison (spin-free states):
   --------------------------------------------------------
 
 --------------------------------------------------
 A comparison between the dipole oscillator strengths in 
 length and velocity gauge will be performed
 
     All dipole oscillator differences above the tolerance of   1.00000000E-01  will be printed 
 
 Due to basis set deficiency these oscillator may be problematic 
 
 The tolerance is defined as ABS(1-O_l/O_v) 
 O_l : dipole oscillator strength in length gauge
 O_p : dipole oscillator strength in velocity gauge
 --------------------------------------------------
 
  Problematic transitions have been found
 
      From   To       Difference (%) Osc. st. (len.) Osc. st. (vel.)
     ---------------------------------------------------------------
         1    3            92.569413  2.55543458E-04  3.43907505E-03
         1    4            18.317406  1.29639201E-02  1.58710926E-02
         2    3           657.031631  5.96059666E-03  7.87364282E-04
         2    4            90.554408  1.03425126E-03  5.42759030E-04
         3    4            57.589596  3.92947232E-03  9.26534988E-03
         5    6            56.855124  8.51440142E-03  1.97344440E-02
     ---------------------------------------------------------------
 
 Number of problematic transitions =                      6
 
--
 
 Electric-dipole - electric-octupole not included
 Electric-dipole - magnetic-quadrupole not included
 
 
 
      ****************************************************************************************************
      *                                                                                                  *
      *                                         Spin-orbit section                                       *
      *                                                                                                  *
      ****************************************************************************************************
 
 
 Complex SO-Hamiltonian matrix elements over
 spin components of spin-free eigenstates (SFS):
 (In cm-1. Print threshold:      0.000 cm-1)
 ----------------------------------------------------------------------
 
  I1  S1  MS1    I2  S2  MS2    Real part    Imag part      Absolute
     1  0.0  0.0    1  0.0  0.0         0.000         0.000         0.000
     2  0.0  0.0    1  0.0  0.0         0.000         0.000         0.000
     2  0.0  0.0    2  0.0  0.0         0.000         0.000         0.000
     3  0.0  0.0    1  0.0  0.0         0.000         0.000         0.000
     3  0.0  0.0    2  0.0  0.0         0.000         0.000         0.000
     3  0.0  0.0    3  0.0  0.0         0.000         0.000         0.000
     4  0.0  0.0    1  0.0  0.0         0.000         0.000         0.000
     4  0.0  0.0    2  0.0  0.0         0.000         0.000         0.000
     4  0.0  0.0    3  0.0  0.0         0.000         0.000         0.000
     4  0.0  0.0    4  0.0  0.0         0.000         0.000         0.000
     5  0.5 -0.5    1  0.0  0.0         0.000         0.000         0.000
     5  0.5 -0.5    2  0.0  0.0         0.000         0.000         0.000
     5  0.5 -0.5    3  0.0  0.0         0.000         0.000         0.000
     5  0.5 -0.5    4  0.0  0.0         0.000         0.000         0.000
     5  0.5 -0.5    5  0.5 -0.5         0.000         0.000         0.000
     6  0.5  0.5    1  0.0  0.0         0.000         0.000         0.000
     6  0.5  0.5    2  0.0  0.0         0.000         0.000         0.000
     6  0.5  0.5    3  0.0  0.0         0.000         0.000         0.000
     6  0.5  0.5    4  0.0  0.0         0.000         0.000         0.000
     6  0.5  0.5    5  0.5 -0.5        -0.000        -0.000         0.000
     6  0.5  0.5    6  0.5  0.5         0.000        -0.000         0.000
     7  0.5 -0.5    1  0.0  0.0         0.000         0.000         0.000
     7  0.5 -0.5    2  0.0  0.0         0.000         0.000         0.000
     7  0.5 -0.5    3  0.0  0.0         0.000         0.000         0.000
     7  0.5 -0.5    4  0.0  0.0         0.000         0.000         0.000
     7  0.5 -0.5    5  0.5 -0.5         0.000        -0.007         0.007
     7  0.5 -0.5    6  0.5  0.5       157.607         0.000       157.607
     7  0.5 -0.5    7  0.5 -0.5         0.000        -0.000         0.000
     8  0.5  0.5    1  0.0  0.0         0.000         0.000         0.000
     8  0.5  0.5    2  0.0  0.0         0.000         0.000         0.000
     8  0.5  0.5    3  0.0  0.0         0.000         0.000         0.000
     8  0.5  0.5    4  0.0  0.0         0.000         0.000         0.000
     8  0.5  0.5    5  0.5 -0.5      -157.607         0.000       157.607
     8  0.5  0.5    6  0.5  0.5         0.000         0.007         0.007
     8  0.5  0.5    7  0.5 -0.5         0.000         0.000         0.000
     8  0.5  0.5    8  0.5  0.5         0.000         0.000         0.000
 ----------------------------------------------------------------------
 
       Total energies including SO-coupling:
::    SO-RASSI State    1     Total energy:    -398.81945511705902
::    SO-RASSI State    2     Total energy:    -398.64495424656741
::    SO-RASSI State    3     Total energy:    -398.61664979244608
::    SO-RASSI State    4     Total energy:    -398.49205377209728
::    SO-RASSI State    5     Total energy:    -398.46479368120833
::    SO-RASSI State    6     Total energy:    -398.46479368120833
::    SO-RASSI State    7     Total energy:    -398.33652266265909
::    SO-RASSI State    8     Total energy:    -398.33652266265909
 
 
   Eigenvalues of complex Hamiltonian:
   -----------------------------------
  (Shifted by EMIN (a.u.) =       -398.8194551171)
 
 SO State       Relative EMIN(au)   Rel lowest level(eV)    D:o, cm**(-1)
 
     1             0.0000000000        0.0000000000              0.0000
     2             0.1745008705        4.7484105872          38298.5142
     3             0.2028053246        5.5186140208          44510.6239
     4             0.3274013450        8.9090444552          71856.2895
     5             0.3546614359        9.6508293175          77839.1879
     6             0.3546614359        9.6508293175          77839.1879
     7             0.4829324544       13.1412615474         105991.4224
     8             0.4829324544       13.1412615474         105991.4224
 
 
 Weights of the five most important spin-orbit-free states for each spin-orbit s
 tate.
 
 SO State  Total energy (au)           Spin-free states, spin, and weights
 -------------------------------------------------------------------------------
 ------------------------
    1         0.000000       1 0.0  1.0000    6 0.5  0.0000    5 0.5  0.0000    4 0.0  0.0000    3 0.0  0.0000
    2         0.174501       2 0.0  1.0000    6 0.5  0.0000    5 0.5  0.0000    4 0.0  0.0000    3 0.0  0.0000
    3         0.202805       3 0.0  1.0000    6 0.5  0.0000    5 0.5  0.0000    4 0.0  0.0000    2 0.0  0.0000
    4         0.327401       4 0.0  1.0000    6 0.5  0.0000    5 0.5  0.0000    3 0.0  0.0000    2 0.0  0.0000
    5         0.354661       5 0.5  1.0000    6 0.5  0.0000    4 0.0  0.0000    3 0.0  0.0000    2 0.0  0.0000
    6         0.354661       5 0.5  1.0000    6 0.5  0.0000    4 0.0  0.0000    3 0.0  0.0000    2 0.0  0.0000
    7         0.482932       6 0.5  1.0000    5 0.5  0.0000    4 0.0  0.0000    3 0.0  0.0000    2 0.0  0.0000
    8         0.482932       6 0.5  1.0000    5 0.5  0.0000    4 0.0  0.0000    3 0.0  0.0000    2 0.0  0.0000
 -------------------------------------------------------------------------------
 ------------------------
 
 
      ****************************************************************************************************
      *                                                                                                  *
      *                                    Special properties section                                    *
      *                                                                                                  *
      ****************************************************************************************************
 
 
++ Dipole transition strengths (SO states):
   ----------------------------------------
        for osc. strength at least   1.00000000E-05
 
      From   To        Osc. strength     Einstein coefficients Ax, Ay, Az (sec-1)    Total A (sec-1)
     -----------------------------------------------------------------------------------------------
         1    3       2.55543458E-04  3.37702564E+05  2.81973063E-13  1.48948727E-13  3.37702564E+05
         1    4       1.29639201E-02  7.60313829E-14  6.16061756E+06  3.84880136E+07  4.46486311E+07
         2    3       5.96059666E-03  7.13240954E-16  1.52786197E+05  6.43767700E+02  1.53429965E+05
         2    4       1.03425126E-03  7.76881191E+05  3.94960467E-15  8.86840640E-18  7.76881191E+05
         3    4       3.92947232E-03  1.95998821E+06  2.03927043E-15  4.79114364E-17  1.95998821E+06
         5    7       8.51493518E-03  4.50141773E+06  4.39066839E-15  7.87724310E-10  4.50141773E+06
         6    8       8.51493518E-03  4.50141773E+06  4.39066839E-15  7.87724310E-10  4.50141773E+06
     -----------------------------------------------------------------------------------------------
--
 
++ Velocity transition strengths (SO states):
   ------------------------------------------
        for osc. strength at least   1.00000000E-05
 
      From   To        Osc. strength     Einstein coefficients Ax, Ay, Az (sec-1)    Total A (sec-1)
     -----------------------------------------------------------------------------------------------
         1    3       3.43907505E-03  4.54476303E+06  2.54089414E-12  1.24933184E-13  4.54476303E+06
         1    4       1.58710926E-02  6.34582884E-15  2.36520499E+06  5.22959279E+07  5.46611329E+07
         2    3       7.87364282E-04  5.34984579E-14  1.96126198E+04  6.54692498E+02  2.02673123E+04
         2    4       5.42759030E-04  4.07695208E+05  5.81260782E-14  8.08207092E-14  4.07695208E+05
         3    4       9.26534988E-03  4.62147970E+06  2.39575554E-13  4.03909824E-14  4.62147970E+06
         5    7       1.97307331E-02  1.04306457E+07  5.49044165E-18  8.95966181E-15  1.04306457E+07
         6    8       1.97307331E-02  1.04306457E+07  5.49044165E-18  8.95966181E-15  1.04306457E+07
     -----------------------------------------------------------------------------------------------
--
 
++ Length and velocity gauge comparison (SO states):
 
 --------------------------------------------------
 A comparison between the dipole oscillator strengths in 
 length and velocity gauge will be performed
 
     All dipole oscillator differences above the tolerance of   1.00000000E-01  will be printed 
 
 Due to basis set deficiency these oscillator may be problematic 
 
 The tolerance is defined as ABS(1-O_l/O_v) 
 O_l : dipole oscillator strength in length gauge
 O_p : dipole oscillator strength in velocity gauge
 --------------------------------------------------
 
  Problematic transitions have been found
 
      From   To       Difference (%) Osc. st. (len.) Osc. st. (vel.)
     ---------------------------------------------------------------
         1    3            92.569413  2.55543458E-04  3.43907505E-03
         1    4            18.317406  1.29639201E-02  1.58710926E-02
         2    3           657.031631  5.96059666E-03  7.87364282E-04
         2    4            90.554408  1.03425126E-03  5.42759030E-04
         3    4            57.589596  3.92947232E-03  9.26534988E-03
         5    7            56.844304  8.51493518E-03  1.97307331E-02
         6    8            56.844304  8.51493518E-03  1.97307331E-02
     ---------------------------------------------------------------
 
 Number of problematic transitions =                      7
 
--
 
 Electric-dipole - electric-octupole not included
++ I/O STATISTICS
 
  I. General I/O information
  - - - - - - - - - - - - - - - - - - - - - - - - - - - - - - - - - - - - - - - - - - -
  Unit  Name          Flsize      Write/Read            MBytes           Write/Read
                      (MBytes)       Calls              In/Out           Time, sec.
  - - - - - - - - - - - - - - - - - - - - - - - - - - - - - - - - - - - - - - - - - - -
   1  ANNI              0.00 .       0/       0 .      0.0/      0.0 .       0/       0
   2  RUNFILE           0.25 .     322/    3768 .      2.3/     27.4 .       0/       0
   3  ONEINT            1.46 .       0/    1187 .      0.0/   1081.1 .       0/       0
   4  JOB001            1.20 .       0/      57 .      0.0/      1.1 .       0/       0
   5  JOB002            1.20 .       0/      45 .      0.0/      1.1 .       0/       0
  - - - - - - - - - - - - - - - - - - - - - - - - - - - - - - - - - - - - - - - - - - -
   *  TOTAL             4.11 .     322/    5057 .      2.3/   1110.7 .       0/       0
  - - - - - - - - - - - - - - - - - - - - - - - - - - - - - - - - - - - - - - - - - - -
 
  II. I/O Access Patterns
  - - - - - - - - - - - - - - - - - - - -
  Unit  Name               % of random
                         Write/Read calls
  - - - - - - - - - - - - - - - - - - - -
   1  ANNI                 0.0/   0.0
   2  RUNFILE             28.6/  10.5
   3  ONEINT               0.0/  97.6
   4  JOB001               0.0/  71.9
   5  JOB002               0.0/  77.8
  - - - - - - - - - - - - - - - - - - - -
--
--- Stop Module: rassi at Fri Mar 15 22:19:18 2024 /rc=_RC_ALL_IS_WELL_ ---
--- Module rassi spent 2 seconds ---

.##################.
.# Happy landing! #.
.##################.

    Timing: Wall=11.62 User=10.30 System=1.17
