   This run of MOLCAS is using the pymolcas driver

                             OPE
                             OPE          NMOL  CASOP  ENMOLC A   SO
                 OPE        NMOLC        AS  OP EN  MO LC     AS  OP
                OPENM       OL CA        SO  PE NM  OL CA     SOP EN
                OP EN      MO   LC       AS  OP ENMOL  CASO   PENMOL
                OP  EN     MO   LC       AS  OP EN     MO     LC ASO
               OP   E  NMOL  C  AS       OP  EN MO     LC     AS  OP
               OP  E   NMO   LC AS        OPEN  MO     LCASOP EN   M
               O  PEN   MO  LCA  SO
            OPE   NMO   L   CAS    OP
        OPENMOL  CASOP     ENMOL   CASOPE
     OPENMOLCA   SOPENMOLCASOPEN   MOLCASOPE
    OPENMOLCAS   OP           EN   MOL    CAS
    OPENMOLCAS       OP  ENM        O     LCA
    OPENMOLCAS    OPEN  MOLCASO     P  E  NMO
    OPENMOLCAS     OP               E  N  MOL
    OPENMOLCA   SO           PENM   O  L  CAS    OPEN    MO    LCAS
    OPENMOLCA   SOP           ENM   O  L  CAS   OP  EN  MOLC  AS   O
    OPENMOLCA   SOPE           NM      O  LCA   S      OP  EN MO
    OPENMOLC                AS         O  PEN   M      OL  CA  SOPE
    OPENMO        LCASOPE  NMOL        C  ASO   P      ENMOLC     AS
    OPE     NMO      LCA  SO     P     E   NM   OL  CA SO  PE N   MO
          OPENMOLCA            SOPE   NMO        LCAS  O    P  ENMO
     OPENMOLCASOPENMOLCASOPENMOLCASOPENMOLCA
        OPENMOLCASOPENMOLCASOPENMOLCASOPE
            OPENMOLCASOPENMOLCASOPENM
               OPENMOLCASOPENMOLCA        version: v23.10
                   OPENMOLCASO
                       OPE                tag:

 OpenMolcas is free software; you can redistribute it and/or modify it
 under the terms of the GNU Lesser General Public License version 2.1.
 OpenMolcas is distributed in the hope that it will be useful, but it
 is provided "as is" and without any express or implied warranties.
 For more details see the full text of the license in the file
 LICENSE or in <http://www.gnu.org/licenses/>.

                 Copyright (C) The OpenMolcas Authors
           For the author list and the recommended citation,
                   consult the file CONTRIBUTORS.md

           *************************************************
           * pymolcas version py2.25                       *
           *   build 2b27fa14244bdc32cb1957e6230cd793      *
           *   (after the EMIL interpreter by V. Veryazov) *
           *************************************************

configuration info
------------------
Host name: manganese.itc.univie.ac.at (Linux)
C Compiler ID: Clang
C flags: -std=gnu99
Fortran Compiler ID: Intel
Fortran flags: -fpp -i8 -heap-arrays
Definitions: _MOLCAS_;_I8_;_LINUX_
Parallel: OFF (GA=OFF)


   ---------------------------------------------------------------------------
  |
  |           Project: MOLCAS
  |    Submitted from: /public/manganese/scratch/tmp/sascha.925337/WORK/master
  |      Scratch area: /public/manganese/scratch/tmp/sascha.925337/WORK/master
  |   Save outputs to: WORKDIR
  |            Molcas: /usr/license/openmolcas/v23.10
  |
  | Scratch area is NOT empty
  |
  |        MOLCASMEM = 10000
  |    MOLCAS_DRIVER = /usr/license/openmolcas/v23.10/pymolcas
  |    MOLCAS_NPROCS = 1
  |    MOLCAS_SOURCE = /usr/license/openmolcas/v23.10
  | MOLCAS_STRUCTURE = 0
  |
   ---------------------------------------------------------------------------

++ ---------   Input file   ---------

&GATEWAY
COORD=MOLCAS.xyz
GROUP=NOSYM
BASIS=cc-pvdz
AMFI
angmom
0 0 0
BASLIB
/user/sascha/development/eci/sharc_main/examples/SHARC_MOLCAS/basisset

RICD
CDTHreshold=0.0001

&SEWARD

&RASSCF
SPIN=1
NACTEL=8 0 0
INACTIVE=5
RAS2=6
ITERATIONS=200,100
CIROOT=6 6 1
ORBLISTING=NOTHING
PRWF=0.1
THRS=0.000000010000 0.000100000000 0.000100000000

>>> COPY MOLCAS.rasscf.molden MOLCAS.1.molden

>>> COPY MOLCAS.JobIph MOLCAS.1.JobIph

&RASSCF
SPIN=2
NACTEL=7 0 0
INACTIVE=5
RAS2=6
ITERATIONS=200,100
CIROOT=2 2 1
ORBLISTING=NOTHING
PRWF=0.1
THRS=0.000000010000 0.000100000000 0.000100000000

>>> COPY MOLCAS.rasscf.molden MOLCAS.2.molden

>>> COPY MOLCAS.JobIph MOLCAS.2.JobIph

>>> COPY MOLCAS.1.JobIph JOB001

&RASSI
NROFJOBIPHS
1 6
1 2 3 4 5 6
MEIN

>>> COPY MOLCAS.2.JobIph JOB001

&RASSI
NROFJOBIPHS
1 2
1 2
MEIN

>>> COPY MOLCAS.1.JobIph JOB001

>>> COPY MOLCAS.2.JobIph JOB002

&RASSI
NROFJOBIPHS
2 6 2
1 2 3 4 5 6
1 2
MEIN
SPINORBIT
SOCOUPLING=0.0d0
EJOB

-- ----------------------------------

--- Start Module: gateway at Wed Mar 20 20:29:50 2024 ---
 
()()()()()()()()()()()()()()()()()()()()()()()()()()()()()()()()()()()()()()()()()()()()()()()()()()

                                              &GATEWAY

                                   only a single process is used
                       available to each process: 10 GB of memory, 1 thread?
                                            pid: 1265037
()()()()()()()()()()()()()()()()()()()()()()()()()()()()()()()()()()()()()()()()()()()()()()()()()()
 
 
 
 Basis Set     1 Label: S.CC-PVDZ
 Basis set is read from library:/user/sascha/development/eci/sharc_main/examples/SHARC_MOLCAS/basisset 
 
 
 Basis Set     2 Label: H.CC-PVDZ
 Basis set is read from library:/user/sascha/development/eci/sharc_main/examples/SHARC_MOLCAS/basisset 
 
++    Symmetry information:
      ---------------------
 
                    Character Table for C1 
 
                             E  
                    a        1  x, y, xy, Rz, z, xz, Ry, yz, Rx, I
--
 
 
++    Basis set information:
      ----------------------
 
 
      Basis set label: S.CC-PVDZ.........
 
      Electronic valence basis set:
      ------------------
      Associated Effective Charge  16.000000 au
      Associated Actual Charge     16.000000 au
      Nuclear Model: Point charge
 
      Shell  nPrim  nBasis  Cartesian Spherical Contaminant
         s      12       4        X                  
         p       8       3        X                  
         d       1       1                 X         
 
 
      Basis set label: H.CC-PVDZ.........
 
      Electronic valence basis set:
      ------------------
      Associated Effective Charge   1.000000 au
      Associated Actual Charge      1.000000 au
      Nuclear Model: Point charge
 
      Shell  nPrim  nBasis  Cartesian Spherical Contaminant
         s       4       2        X                  
         p       1       1        X                  
--
 
 
++    Molecular structure info:
      -------------------------
 
                    ************************************************ 
                    **** Cartesian Coordinates / Bohr, Angstrom **** 
                    ************************************************ 
 
     Center  Label                x              y              z                     x              y              z
        1      S1               0.000000       0.000000       0.001589              0.000000       0.000000       0.000841
        2      H2               0.000000       1.842103       2.235421              0.000000       0.974799       1.182934
        3      H3               0.000000      -1.842103       2.235421              0.000000      -0.974799       1.182934
 
                    *************************************** 
                    *    InterNuclear Distances / Bohr    * 
                    *************************************** 
 
               1 S1            2 H2            3 H3    
    1 S1       0.000000
    2 H2       2.895401        0.000000
    3 H3       2.895401        3.684206        0.000000
 
                    ******************************************* 
                    *    InterNuclear Distances / Angstrom    * 
                    ******************************************* 
 
               1 S1            2 H2            3 H3    
    1 S1       0.000000
    2 H2       1.532180        0.000000
    3 H3       1.532180        1.949598        0.000000
 
                    ************************************** 
                    *    Valence Bond Angles / Degree    * 
                    ************************************** 
                          Atom centers                 Phi
                      2 H2       1 S1       3 H3        79.02
--
 
 
            Nuclear Potential Energy             11.32343694 au
 
--- Stop Module: gateway at Wed Mar 20 20:29:51 2024 /rc=_RC_ALL_IS_WELL_ ---

--- Start Module: seward at Wed Mar 20 20:29:51 2024 ---
 
()()()()()()()()()()()()()()()()()()()()()()()()()()()()()()()()()()()()()()()()()()()()()()()()()()

                                              &SEWARD

                                   only a single process is used
                       available to each process: 10 GB of memory, 1 thread?
                                            pid: 1265040
()()()()()()()()()()()()()()()()()()()()()()()()()()()()()()()()()()()()()()()()()()()()()()()()()()
 
               SEWARD will generate:
                  Multipole Moment integrals up to order  2
                  Kinetic Energy integrals
                  Nuclear Attraction integrals (point charge)
                  One-Electron Hamiltonian integrals
                  Velocity integrals
                  Orbital angular momentum around ( 0.0000  0.0000  0.0000 )
                  Velocity quadrupole around ( 0.0000  0.0000  0.1341 )
                  Atomic mean-field integrals
                  RI decomposed two-electron repulsion integrals stored Cholesky style
                   - acCD auxiliary basis
                   - CD Threshold:   0.10E-03
 
                   Integrals are discarded if absolute value <: 0.10E-13
                   Integral cutoff threshold is set to       <: 0.10E-15
 
            Nuclear Potential Energy             11.32343694 au
 
 
      Basis set specifications :
      Symmetry species         a  
      Basis functions           28
 
 
      Input file to MOLDEN was generated!
 
--- Stop Module: seward at Wed Mar 20 20:29:51 2024 /rc=_RC_ALL_IS_WELL_ ---

*** symbolic link created: INPORB -> MOLCAS.GssOrb
--- Start Module: rasscf at Wed Mar 20 20:29:51 2024 ---
 
()()()()()()()()()()()()()()()()()()()()()()()()()()()()()()()()()()()()()()()()()()()()()()()()()()

                                              &RASSCF

                                   only a single process is used
                       available to each process: 10 GB of memory, 1 thread?
                                            pid: 1265056
()()()()()()()()()()()()()()()()()()()()()()()()()()()()()()()()()()()()()()()()()()()()()()()()()()
 
 
      Header of the ONEINT file:
      --------------------------
      
      Integrals generated by Gateway/Seward, Wed Mar 20 20:29:51 2024
 
 
      OrdInt status: non-squared
 
 
      Cartesian coordinates in Angstrom:
      -----------------------------------------------------
      No.  Label        X            Y            Z        
      -----------------------------------------------------
       1   S1         0.00000000   0.00000000   0.00084100
       2   H2         0.00000000   0.97479900   1.18293400
       3   H3         0.00000000  -0.97479900   1.18293400
      -----------------------------------------------------
      Nuclear repulsion energy =   11.32343694
 
++    Wave function specifications:
      -----------------------------
 
      Number of closed shell electrons          10
      Number of electrons in active shells       8
      Max number of holes in RAS1 space          0
      Max nr of electrons in RAS3 space          0
      Number of inactive orbitals                5
      Number of active orbitals                  6
      Number of secondary orbitals              17
      Spin quantum number                      0.0
      State symmetry                             1
--
 
++    Orbital specifications:
      -----------------------
 
      Symmetry species                           1
                                                 a
      Frozen orbitals                            0
      Inactive orbitals                          5
      Active orbitals                            6
      RAS1 orbitals                              0
      RAS2 orbitals                              6
      RAS3 orbitals                              0
      Secondary orbitals                        17
      Deleted orbitals                           0
      Number of basis functions                 28
--
 
++    CI expansion specifications:
      ----------------------------
 
      Number of CSFs                           105
      Number of determinants                   120
      Number of root(s) required                 6
      Root chosen for geometry opt.              6
      CI roots used                              1     2     3     4     5     6
      weights                                0.167 0.167 0.167 0.167 0.167 0.167
      highest root included in the CI            6
      max. size of the explicit Hamiltonian    105
--
 
++    Optimization specifications:
      ----------------------------
 
      RASSCF algorithm: LK RI/DF
      Maximum number of macro iterations       200
      Maximum number of SX iterations          100
      Threshold for RASSCF energy            0.100E-07
      Threshold for max MO rotation          0.100E-03
      Threshold for max BLB element          0.100E-03
      Level shift parameter                  0.500E+00
      Make Quasi-Newton update
--
 
      Orbitals from runfile: guessorb orbitals
      The MO-coefficients are taken from guessorb on runfile
 
      Total molecular charge    0.00
 
      ************************************************************************************************************************
      *                                                                                                                      *
      *                                            Wave function control section                                             *
      *                                                                                                                      *
      ************************************************************************************************************************
 
 
                                         RASSCF iterations: Energy and convergence statistics
                                         ----------------------------------------------------
 
      Iter CI   SX   CI       RASSCF       Energy    max ROT     max BLB   max BLB  Level Ln srch  Step   QN   Walltime
          iter iter root      energy       change     param      element    value   shift minimum  type update hh:mm:ss
 Nr of preliminary CI iterations:   1
        1   1   66    0  -398.36477083    0.00E+00   0.17E+00*   7  18 1  0.15E+00*  0.00   0.00    SX    NO    0:00:00
        2   1   17    0  -398.43697329   -0.72E-01* -0.70E-01*   6  13 1  0.27E-01*  0.00   0.00    SX    NO    0:00:00
        3   1   15    0  -398.44230286   -0.53E-02*  0.27E-01*  11  13 1 -0.92E-02*  0.00   0.00    SX    NO    0:00:00
        4   1   14    0  -398.44296396   -0.66E-03*  0.12E-01*  11  13 1 -0.38E-02*  0.00   0.00    SX    NO    0:00:00
        5   1   14    0  -398.44306803   -0.10E-03*  0.79E-02*  11  13 1 -0.16E-02*  0.00   1.69    LS   YES    0:00:00
        6   1   11    0  -398.44308867   -0.21E-04*  0.42E-03*   9  25 1  0.35E-03*  0.00   1.02    QN   YES    0:00:00
        7   1   10    0  -398.44308901   -0.34E-06*  0.11E-03*   7  12 1  0.53E-04   0.00   1.15    QN   YES    0:00:00
        8   1    6    0  -398.44308903   -0.20E-07*  0.19E-04   11  14 1  0.70E-05   0.00   1.06    QN   YES    0:00:00
        9   1    5    0  -398.44308903   -0.33E-09   0.48E-05    6  13 1  0.23E-05   0.00   1.27    QN   YES    0:00:00
      Convergence after  9 iterations
       10   1    5    0  -398.44308903   -0.16E-10   0.48E-05    9  15 1  0.26E-06   0.00   1.27    QN   YES    0:00:00
 
      ************************************************************************************************************************
                                                      Wave function printout:
                       occupation of active orbitals, and spin coupling of open shells (u,d: Spin up or down)
      ************************************************************************************************************************
 
      Note: transformation to natural orbitals
      has been made, which may change the order of the CSFs.
 
      printout of CI-coefficients larger than  0.10 for root  1
      energy=    -398.691538
      conf/sym  111111     Coeff  Weight
             1  222200  -0.97171 0.94422
            15  2u22d0   0.10924 0.01193
            38  2ud2ud   0.10920 0.01192
 
      printout of CI-coefficients larger than  0.10 for root  2
      energy=    -398.508200
      conf/sym  111111     Coeff  Weight
             2  222ud0   0.97539 0.95140
            10  22udud   0.10906 0.01189
 
      printout of CI-coefficients larger than  0.10 for root  3
      energy=    -398.478575
      conf/sym  111111     Coeff  Weight
             4  222u0d  -0.96184 0.92514
             8  22ud20  -0.11302 0.01277
            18  2u2dud  -0.16520 0.02729
            51  202u2d  -0.10588 0.01121
 
      printout of CI-coefficients larger than  0.10 for root  4
      energy=    -398.351924
      conf/sym  111111     Coeff  Weight
             9  22u20d  -0.74345 0.55272
            15  2u22d0   0.59730 0.35677
            31  220220  -0.17634 0.03110
            52  202202   0.13930 0.01940
 
      printout of CI-coefficients larger than  0.10 for root  5
      energy=    -398.345878
      conf/sym  111111     Coeff  Weight
             7  22u2d0   0.67353 0.45365
            17  2u220d  -0.67543 0.45621
            32  2202ud   0.13691 0.01875
            37  2ud220  -0.14811 0.02194
            40  2ud202   0.15180 0.02304
            50  2022ud  -0.10075 0.01015
 
      printout of CI-coefficients larger than  0.10 for root  6
      energy=    -398.282419
      conf/sym  111111     Coeff  Weight
             7  22u2d0   0.69812 0.48737
            17  2u220d   0.69811 0.48736
 
      Natural orbitals and occupation numbers for root  1
      sym 1:   1.997304   1.961193   1.964608   1.998624   0.048336   0.029935
 
      Natural orbitals and occupation numbers for root  2
      sym 1:   1.998912   1.986432   1.961516   1.000000   0.999157   0.053982
 
      Natural orbitals and occupation numbers for root  3
      sym 1:   1.998795   1.940168   1.971877   1.000000   0.096915   0.992244
 
      Natural orbitals and occupation numbers for root  4
      sym 1:   1.977020   1.582919   1.363576   1.983678   0.471470   0.621338
 
      Natural orbitals and occupation numbers for root  5
      sym 1:   1.992380   1.465189   1.450376   1.997413   0.550774   0.543869
 
      Natural orbitals and occupation numbers for root  6
      sym 1:   1.990636   1.498251   1.485250   1.998508   0.523339   0.504015
 
      ************************************************************************************************************************
      *                                                                                                                      *
      *                                                    Final results                                                     *
      *                                                                                                                      *
      ************************************************************************************************************************
 
 
++    Wave function specifications:
      -----------------------------
 
      Number of closed shell electrons          10
      Number of electrons in active shells       8
      Max number of holes in RAS1 space          0
      Max nr of electrons in RAS3 space          0
      Number of inactive orbitals                5
      Number of active orbitals                  6
      Number of secondary orbitals              17
      Spin quantum number                      0.0
      State symmetry                             1
--
 
++    Orbital specifications:
      -----------------------
 
      Symmetry species                           1
                                                 a
      Frozen orbitals                            0
      Inactive orbitals                          5
      Active orbitals                            6
      RAS1 orbitals                              0
      RAS2 orbitals                              6
      RAS3 orbitals                              0
      Secondary orbitals                        17
      Deleted orbitals                           0
      Number of basis functions                 28
--
 
++    CI expansion specifications:
      ----------------------------
 
      Number of CSFs                           105
      Number of determinants                   120
      Number of root(s) required                 6
      CI roots used                              1     2     3     4     5     6
      weights                                0.167 0.167 0.167 0.167 0.167 0.167
      highest root included in the CI            6
      Root passed to geometry opt.               6
--
 
++    Final optimization conditions:
      ------------------------------
 
      Average CI energy                            -398.44308903
      RASSCF energy for state  6                   -398.28241941
      Super-CI energy                                -0.00000000
      RASSCF energy change                           -0.00000000
      Max change in MO coefficients              -0.396E-05
      Max non-diagonal density matrix element     0.476E-05
      Maximum BLB matrix element                  0.257E-06
      (orbital pair   9,  15 in symmetry   1)
      Norm of electronic gradient            0.933E-01
--
 
 
      Final state energy(ies):
      ------------------------
 
::    RASSCF root number  1 Total energy:   -398.69153830
::    RASSCF root number  2 Total energy:   -398.50819964
::    RASSCF root number  3 Total energy:   -398.47857529
::    RASSCF root number  4 Total energy:   -398.35192376
::    RASSCF root number  5 Total energy:   -398.34587777
::    RASSCF root number  6 Total energy:   -398.28241941
      Von Neumann Entropy (Root   1) =  0.27649
 

      Mulliken population analysis for root number:  1
      -----------------------------------------------
 
 
++    Molecular charges:
      ------------------
 
      Mulliken charges per centre
      ---------------------------
 
                S1      H2      H3    
      Total   16.1051  0.9475  0.9475
 
      N-E     -0.1051  0.0525  0.0525
 
      Total electronic charge=   18.000000
 
      Total            charge=   -0.000000
--
 
 

      Expectation values of various properties for root number:  1
      -----------------------------------------------------------
 
 
++    Molecular properties:
      ---------------------
 
      Charge (e):
                      =   -0.0000
      Dipole Moment (Debye):
      Origin of the operator (Ang)=    0.0000    0.0000    0.0000
                   X=  5.6145E-12               Y=  3.4331E-10               Z=  9.1922E-01           Total=  9.1922E-01
      Quadrupole Moment (Debye*Ang):
      Origin of the operator (Ang)=    0.0000    0.0000    0.0709
                  XX= -1.6707E+01              XY= -2.1683E-12              XZ=  1.7288E-12              YY= -1.3273E+01
                  YZ= -8.2464E-10              ZZ= -1.3041E+01
      In traceless form (Debye*Ang)
                  XX= -3.5495E+00              XY= -3.2525E-12              XZ=  2.5933E-12              YY=  1.6005E+00
                  YZ= -1.2370E-09              ZZ=  1.9490E+00
--
 
      Von Neumann Entropy (Root   2) =  1.17888
 

      Mulliken population analysis for root number:  2
      -----------------------------------------------
 
 
++    Molecular charges:
      ------------------
 
      Mulliken charges per centre
      ---------------------------
 
                S1      H2      H3    
      Total   15.9281  1.0359  1.0359
 
      N-E      0.0719 -0.0359 -0.0359
 
      Total electronic charge=   18.000000
 
      Total            charge=   -0.000000
--
 
 

      Expectation values of various properties for root number:  2
      -----------------------------------------------------------
 
 
++    Molecular properties:
      ---------------------
 
      Charge (e):
                      =   -0.0000
      Dipole Moment (Debye):
      Origin of the operator (Ang)=    0.0000    0.0000    0.0000
                   X= -2.7448E-12               Y=  1.7311E-08               Z= -1.9428E-02           Total=  1.9428E-02
      Quadrupole Moment (Debye*Ang):
      Origin of the operator (Ang)=    0.0000    0.0000    0.0709
                  XX= -1.4008E+01              XY=  1.7300E-11              XZ= -5.0708E-12              YY= -1.6871E+01
                  YZ=  4.0388E-08              ZZ= -1.6417E+01
      In traceless form (Debye*Ang)
                  XX=  2.6359E+00              XY=  2.5949E-11              XZ= -7.6062E-12              YY= -1.6591E+00
                  YZ=  6.0581E-08              ZZ= -9.7683E-01
--
 
      Von Neumann Entropy (Root   3) =  1.27683
 

      Mulliken population analysis for root number:  3
      -----------------------------------------------
 
 
++    Molecular charges:
      ------------------
 
      Mulliken charges per centre
      ---------------------------
 
                S1      H2      H3    
      Total   15.8158  1.0921  1.0921
 
      N-E      0.1842 -0.0921 -0.0921
 
      Total electronic charge=   18.000000
 
      Total            charge=   -0.000000
--
 
 

      Expectation values of various properties for root number:  3
      -----------------------------------------------------------
 
 
++    Molecular properties:
      ---------------------
 
      Charge (e):
                      =   -0.0000
      Dipole Moment (Debye):
      Origin of the operator (Ang)=    0.0000    0.0000    0.0000
                   X= -2.0421E-12               Y= -3.7891E-10               Z= -1.1945E+00           Total=  1.1945E+00
      Quadrupole Moment (Debye*Ang):
      Origin of the operator (Ang)=    0.0000    0.0000    0.0709
                  XX= -1.4459E+01              XY= -2.6770E-12              XZ= -4.0199E-12              YY= -1.6936E+01
                  YZ= -1.4146E-08              ZZ= -1.8846E+01
      In traceless form (Debye*Ang)
                  XX=  3.4315E+00              XY= -4.0155E-12              XZ= -6.0299E-12              YY= -2.8333E-01
                  YZ= -2.1219E-08              ZZ= -3.1481E+00
--
 
      Von Neumann Entropy (Root   4) =  1.68742
 

      Mulliken population analysis for root number:  4
      -----------------------------------------------
 
 
++    Molecular charges:
      ------------------
 
      Mulliken charges per centre
      ---------------------------
 
                S1      H2      H3    
      Total   16.0051  0.9974  0.9974
 
      N-E     -0.0051  0.0026  0.0026
 
      Total electronic charge=   18.000000
 
      Total            charge=   -0.000000
--
 
 

      Expectation values of various properties for root number:  4
      -----------------------------------------------------------
 
 
++    Molecular properties:
      ---------------------
 
      Charge (e):
                      =   -0.0000
      Dipole Moment (Debye):
      Origin of the operator (Ang)=    0.0000    0.0000    0.0000
                   X=  8.6631E-12               Y=  1.0262E-07               Z= -3.7520E-01           Total=  3.7520E-01
      Quadrupole Moment (Debye*Ang):
      Origin of the operator (Ang)=    0.0000    0.0000    0.0709
                  XX= -1.7069E+01              XY= -3.0652E-12              XZ= -1.8451E-12              YY= -1.5655E+01
                  YZ=  2.7771E-07              ZZ= -1.5962E+01
      In traceless form (Debye*Ang)
                  XX= -1.2610E+00              XY= -4.5978E-12              XZ= -2.7676E-12              YY=  8.6085E-01
                  YZ=  4.1656E-07              ZZ=  4.0018E-01
--
 
      Von Neumann Entropy (Root   5) =  1.69562
 

      Mulliken population analysis for root number:  5
      -----------------------------------------------
 
 
++    Molecular charges:
      ------------------
 
      Mulliken charges per centre
      ---------------------------
 
                S1      H2      H3    
      Total   16.0417  0.9791  0.9791
 
      N-E     -0.0417  0.0209  0.0209
 
      Total electronic charge=   18.000000
 
      Total            charge=   -0.000000
--
 
 

      Expectation values of various properties for root number:  5
      -----------------------------------------------------------
 
 
++    Molecular properties:
      ---------------------
 
      Charge (e):
                      =   -0.0000
      Dipole Moment (Debye):
      Origin of the operator (Ang)=    0.0000    0.0000    0.0000
                   X=  7.7670E-12               Y= -8.8864E-08               Z= -8.1182E-03           Total=  8.1182E-03
      Quadrupole Moment (Debye*Ang):
      Origin of the operator (Ang)=    0.0000    0.0000    0.0709
                  XX= -1.7107E+01              XY=  1.4281E-12              XZ=  8.1187E-13              YY= -1.5351E+01
                  YZ= -2.5357E-07              ZZ= -1.5933E+01
      In traceless form (Debye*Ang)
                  XX= -1.4648E+00              XY=  2.1421E-12              XZ=  1.2178E-12              YY=  1.1692E+00
                  YZ= -3.8035E-07              ZZ=  2.9555E-01
--
 
      Von Neumann Entropy (Root   6) =  1.64602
 

      Mulliken population analysis for root number:  6
      -----------------------------------------------
 
 
++    Molecular charges:
      ------------------
 
      Mulliken charges per centre
      ---------------------------
 
                S1      H2      H3    
      Total   16.0055  0.9973  0.9973
 
      N-E     -0.0055  0.0027  0.0027
 
      Total electronic charge=   18.000000
 
      Total            charge=   -0.000000
--
 
 

      Expectation values of various properties for root number:  6
      -----------------------------------------------------------
 
 
++    Molecular properties:
      ---------------------
 
      Charge (e):
                      =   -0.0000
      Dipole Moment (Debye):
      Origin of the operator (Ang)=    0.0000    0.0000    0.0000
                   X=  7.8164E-12               Y=  1.5993E-08               Z=  3.6480E-01           Total=  3.6480E-01
      Quadrupole Moment (Debye*Ang):
      Origin of the operator (Ang)=    0.0000    0.0000    0.0709
                  XX= -1.7067E+01              XY=  2.9849E-12              XZ=  3.4540E-13              YY= -1.5251E+01
                  YZ=  4.4593E-08              ZZ= -1.5770E+01
      In traceless form (Debye*Ang)
                  XX= -1.5569E+00              XY=  4.4773E-12              XZ=  5.1810E-13              YY=  1.1678E+00
                  YZ=  6.6890E-08              ZZ=  3.8913E-01
--
 
 
      Input file to MOLDEN was generated!
 
 
      Input file to MOLDEN was generated!
 
 
      Input file to MOLDEN was generated!
 
 
      Input file to MOLDEN was generated!
 
 
      Input file to MOLDEN was generated!
 
 
      Input file to MOLDEN was generated!
 
 
      Input file to MOLDEN was generated!
 
      Average orbitals are written to the RASORB file
      Natural orbitals for root   1 are written to the RASORB.1 file
      Natural orbitals for root   2 are written to the RASORB.2 file
      Natural orbitals for root   3 are written to the RASORB.3 file
      Natural orbitals for root   4 are written to the RASORB.4 file
      Natural orbitals for root   5 are written to the RASORB.5 file
      Natural orbitals for root   6 are written to the RASORB.6 file
      Spin density orbitals for root   1 are written to the SPDORB.1 file
      Spin density orbitals for root   2 are written to the SPDORB.2 file
      Spin density orbitals for root   3 are written to the SPDORB.3 file
      Spin density orbitals for root   4 are written to the SPDORB.4 file
      Spin density orbitals for root   5 are written to the SPDORB.5 file
      Spin density orbitals for root   6 are written to the SPDORB.6 file
 
--- Stop Module: rasscf at Wed Mar 20 20:29:54 2024 /rc=_RC_ALL_IS_WELL_ ---
--- Module rasscf spent 2 seconds ---

>>> COPY MOLCAS.rasscf.molden MOLCAS.1.molden

>>> COPY MOLCAS.JobIph MOLCAS.1.JobIph

*** symbolic link created: INPORB -> MOLCAS.RasOrb
--- Start Module: rasscf at Wed Mar 20 20:29:54 2024 ---
 
()()()()()()()()()()()()()()()()()()()()()()()()()()()()()()()()()()()()()()()()()()()()()()()()()()

                                              &RASSCF

                                   only a single process is used
                       available to each process: 10 GB of memory, 1 thread?
                                            pid: 1265062
()()()()()()()()()()()()()()()()()()()()()()()()()()()()()()()()()()()()()()()()()()()()()()()()()()
 
 
      Header of the ONEINT file:
      --------------------------
      
      Integrals generated by Gateway/Seward, Wed Mar 20 20:29:51 2024
 
 
      OrdInt status: non-squared
 
 
      Cartesian coordinates in Angstrom:
      -----------------------------------------------------
      No.  Label        X            Y            Z        
      -----------------------------------------------------
       1   S1         0.00000000   0.00000000   0.00084100
       2   H2         0.00000000   0.97479900   1.18293400
       3   H3         0.00000000  -0.97479900   1.18293400
      -----------------------------------------------------
      Nuclear repulsion energy =   11.32343694
 
++    Wave function specifications:
      -----------------------------
 
      Number of closed shell electrons          10
      Number of electrons in active shells       7
      Max number of holes in RAS1 space          0
      Max nr of electrons in RAS3 space          0
      Number of inactive orbitals                5
      Number of active orbitals                  6
      Number of secondary orbitals              17
      Spin quantum number                      0.5
      State symmetry                             1
--
 
++    Orbital specifications:
      -----------------------
 
      Symmetry species                           1
                                                 a
      Frozen orbitals                            0
      Inactive orbitals                          5
      Active orbitals                            6
      RAS1 orbitals                              0
      RAS2 orbitals                              6
      RAS3 orbitals                              0
      Secondary orbitals                        17
      Deleted orbitals                           0
      Number of basis functions                 28
--
 
++    CI expansion specifications:
      ----------------------------
 
      Number of CSFs                           210
      Number of determinants                   300
      Number of root(s) required                 2
      Root chosen for geometry opt.              2
      CI roots used                              1     2
      weights                                0.500 0.500
      highest root included in the CI            2
      max. size of the explicit Hamiltonian    200
--
 
++    Optimization specifications:
      ----------------------------
 
      RASSCF algorithm: LK RI/DF
      Maximum number of macro iterations       200
      Maximum number of SX iterations          100
      Threshold for RASSCF energy            0.100E-07
      Threshold for max MO rotation          0.100E-03
      Threshold for max BLB element          0.100E-03
      Level shift parameter                  0.500E+00
      Make Quasi-Newton update
--
 
      Orbitals from runfile: rasscf orbitals
      The MO-coefficients are taken from rasscf orbitals on runfile
 
      Total molecular charge    1.00
 
      ************************************************************************************************************************
      *                                                                                                                      *
      *                                            Wave function control section                                             *
      *                                                                                                                      *
      ************************************************************************************************************************
 
 
                                         RASSCF iterations: Energy and convergence statistics
                                         ----------------------------------------------------
 
      Iter CI   SX   CI       RASSCF       Energy    max ROT     max BLB   max BLB  Level Ln srch  Step   QN   Walltime
          iter iter root      energy       change     param      element    value   shift minimum  type update hh:mm:ss
 Nr of preliminary CI iterations:   1
        1   1   86    0  -398.27093699    0.00E+00   0.33E+00*   7  12 1 -0.82E-01*  0.00   0.00    SX    NO    0:00:00
        2   3    7    0  -398.30263218   -0.32E-01*  0.78E-01*   7  21 1 -0.13E-01*  0.00   0.00    SX    NO    0:00:00
        3   2    6    0  -398.30454165   -0.19E-02* -0.33E-01*   7  12 1 -0.52E-02*  0.00   0.00    SX    NO    0:00:00
        4   3    6    0  -398.30481215   -0.27E-03*  0.15E-01*   7  12 1 -0.19E-02*  0.00   0.00    SX    NO    0:00:00
        5   3    6    0  -398.30486910   -0.57E-04*  0.15E-01*   7  12 1 -0.83E-03*  0.00   2.02    LS   YES    0:00:00
        6   3    6    0  -398.30488853   -0.19E-04* -0.57E-02*   7  21 1  0.41E-03*  0.00   1.04    QN   YES    0:00:00
        7   3    5    0  -398.30489341   -0.49E-05* -0.84E-02*  11  16 1 -0.21E-03*  0.00   2.50    LS   YES    0:00:00
        8   3    5    0  -398.30489630   -0.29E-05* -0.11E-02*   7  21 1 -0.39E-03*  0.00   1.07    QN   YES    0:00:00
        9   3    5    0  -398.30489675   -0.45E-06* -0.64E-03*   7  21 1 -0.11E-03*  0.00   1.38    QN   YES    0:00:00
       10   3    4    0  -398.30489681   -0.61E-07*  0.11E-03*   9  15 1 -0.12E-04   0.00   1.09    QN   YES    0:00:00
       11   1    4    0  -398.30489681   -0.14E-08   0.62E-04    7  21 1  0.41E-05   0.00   2.50    QN   YES    0:00:00
      Convergence after 11 iterations
       12   1    4    0  -398.30489681   -0.23E-09   0.62E-04    6  14 1 -0.99E-06   0.00   2.50    QN   YES    0:00:00
 
      ************************************************************************************************************************
                                                      Wave function printout:
                       occupation of active orbitals, and spin coupling of open shells (u,d: Spin up or down)
      ************************************************************************************************************************
 
      Note: transformation to natural orbitals
      has been made, which may change the order of the CSFs.
 
      printout of CI-coefficients larger than  0.10 for root  1
      energy=    -398.370399
      conf/sym  111111     Coeff  Weight
             1  222u00   0.97458 0.94981
            56  202u20   0.10693 0.01143
 
      printout of CI-coefficients larger than  0.10 for root  2
      energy=    -398.239395
      conf/sym  111111     Coeff  Weight
             4  22u200  -0.97423 0.94913
           124  20u220  -0.10810 0.01169
 
      Natural orbitals and occupation numbers for root  1
      sym 1:   1.994835   1.950585   1.960836   1.000000   0.056261   0.037483
 
      Natural orbitals and occupation numbers for root  2
      sym 1:   1.977851   1.938959   1.006335   1.997829   0.047713   0.031313
 
      ************************************************************************************************************************
      *                                                                                                                      *
      *                                                    Final results                                                     *
      *                                                                                                                      *
      ************************************************************************************************************************
 
 
++    Wave function specifications:
      -----------------------------
 
      Number of closed shell electrons          10
      Number of electrons in active shells       7
      Max number of holes in RAS1 space          0
      Max nr of electrons in RAS3 space          0
      Number of inactive orbitals                5
      Number of active orbitals                  6
      Number of secondary orbitals              17
      Spin quantum number                      0.5
      State symmetry                             1
--
 
++    Orbital specifications:
      -----------------------
 
      Symmetry species                           1
                                                 a
      Frozen orbitals                            0
      Inactive orbitals                          5
      Active orbitals                            6
      RAS1 orbitals                              0
      RAS2 orbitals                              6
      RAS3 orbitals                              0
      Secondary orbitals                        17
      Deleted orbitals                           0
      Number of basis functions                 28
--
 
++    CI expansion specifications:
      ----------------------------
 
      Number of CSFs                           210
      Number of determinants                   300
      Number of root(s) required                 2
      CI roots used                              1     2
      weights                                0.500 0.500
      highest root included in the CI            2
      Root passed to geometry opt.               2
--
 
++    Final optimization conditions:
      ------------------------------
 
      Average CI energy                            -398.30489681
      RASSCF energy for state  2                   -398.23939495
      Super-CI energy                                -0.00000000
      RASSCF energy change                            0.00000000
      Max change in MO coefficients              -0.672E-04
      Max non-diagonal density matrix element     0.618E-04
      Maximum BLB matrix element                 -0.989E-06
      (orbital pair   6,  14 in symmetry   1)
      Norm of electronic gradient            0.472E-01
--
 
 
      Final state energy(ies):
      ------------------------
 
::    RASSCF root number  1 Total energy:   -398.37039867
::    RASSCF root number  2 Total energy:   -398.23939495
      Von Neumann Entropy (Root   1) =  0.81935
 

      Mulliken population analysis for root number:  1
      -----------------------------------------------
 
 
++    Molecular charges:
      ------------------
 
      Mulliken charges per centre
      ---------------------------
 
                S1      H2      H3    
      Total   15.4613  0.7694  0.7694
 
      N-E      0.5387  0.2306  0.2306
 
      Total electronic charge=   17.000000
 
      Total            charge=    1.000000
--
 
 

      Expectation values of various properties for root number:  1
      -----------------------------------------------------------
 
 
++    Molecular properties:
      ---------------------
 
      Charge (e):
                      =    1.0000
      Dipole Moment (Debye):
      Origin of the operator (Ang)=    0.0000    0.0000    0.0000
                   X= -7.1714E-14               Y= -6.0989E-10               Z=  2.6173E+00           Total=  2.6173E+00
      Center of Charge (Ang)
                     X=   -0.00000000               Y=   -0.00000000               Z=    0.54490531
      Quadrupole Moment (Debye*Ang):
      Origin of the operator (Ang)=    0.0000    0.0000    0.0709
                  XX= -1.1643E+01              XY=  8.6115E-11              XZ=  5.7367E-13              YY= -9.5522E+00
                  YZ= -6.1764E-10              ZZ= -8.8148E+00
      In traceless form (Debye*Ang)
                  XX= -2.4596E+00              XY=  1.2917E-10              XZ=  8.6050E-13              YY=  6.7679E-01
                  YZ= -9.2645E-10              ZZ=  1.7828E+00
--
 

      Mulliken spin population analysis for root number:  1
      ---------------------------------------------------
 
 
++    Molecular charges:
      ------------------
 
      Mulliken spin population per centre
      ---------------------------
 
                S1      H2      H3    
      Total    1.0899 -0.0449 -0.0449
 
      Total electronic spin=    1.000000
--
 
 
      Von Neumann Entropy (Root   2) =  0.78186
 

      Mulliken population analysis for root number:  2
      -----------------------------------------------
 
 
++    Molecular charges:
      ------------------
 
      Mulliken charges per centre
      ---------------------------
 
                S1      H2      H3    
      Total   15.6230  0.6885  0.6885
 
      N-E      0.3770  0.3115  0.3115
 
      Total electronic charge=   17.000000
 
      Total            charge=    1.000000
--
 
 

      Expectation values of various properties for root number:  2
      -----------------------------------------------------------
 
 
++    Molecular properties:
      ---------------------
 
      Charge (e):
                      =    1.0000
      Dipole Moment (Debye):
      Origin of the operator (Ang)=    0.0000    0.0000    0.0000
                   X= -3.7848E-13               Y= -3.5099E-09               Z=  2.5757E+00           Total=  2.5757E+00
      Center of Charge (Ang)
                     X=   -0.00000000               Y=   -0.00000000               Z=    0.53624174
      Quadrupole Moment (Debye*Ang):
      Origin of the operator (Ang)=    0.0000    0.0000    0.0709
                  XX= -1.4163E+01              XY=  1.3149E-10              XZ=  1.2458E-12              YY= -8.9685E+00
                  YZ= -7.1714E-09              ZZ= -6.1887E+00
      In traceless form (Debye*Ang)
                  XX= -6.5840E+00              XY=  1.9724E-10              XZ=  1.8687E-12              YY=  1.2071E+00
                  YZ= -1.0757E-08              ZZ=  5.3768E+00
--
 

      Mulliken spin population analysis for root number:  2
      ---------------------------------------------------
 
 
++    Molecular charges:
      ------------------
 
      Mulliken spin population per centre
      ---------------------------
 
                S1      H2      H3    
      Total    0.6690  0.1655  0.1655
 
      Total electronic spin=    1.000000
--
 
 
 
      Input file to MOLDEN was generated!
 
 
      Input file to MOLDEN was generated!
 
 
      Input file to MOLDEN was generated!
 
      Average orbitals are written to the RASORB file
      Natural orbitals for root   1 are written to the RASORB.1 file
      Natural orbitals for root   2 are written to the RASORB.2 file
      Spin density orbitals for root   1 are written to the SPDORB.1 file
      Spin density orbitals for root   2 are written to the SPDORB.2 file
 
--- Stop Module: rasscf at Wed Mar 20 20:29:57 2024 /rc=_RC_ALL_IS_WELL_ ---
--- Module rasscf spent 2 seconds ---

>>> COPY MOLCAS.rasscf.molden MOLCAS.2.molden

>>> COPY MOLCAS.JobIph MOLCAS.2.JobIph

>>> COPY MOLCAS.1.JobIph JOB001

*** symbolic link created: INPORB -> MOLCAS.RasOrb
--- Start Module: rassi at Wed Mar 20 20:29:57 2024 ---
 
()()()()()()()()()()()()()()()()()()()()()()()()()()()()()()()()()()()()()()()()()()()()()()()()()()

                                               &RASSI

                                   only a single process is used
                       available to each process: 10 GB of memory, 1 thread?
                                            pid: 1265065
()()()()()()()()()()()()()()()()()()()()()()()()()()()()()()()()()()()()()()()()()()()()()()()()()()
 
 
      ********************************************************************************
      *                                                                              *
      *                             General data section                             *
      *                                                                              *
      ********************************************************************************
 
   Specific data for JOBIPH file 
 JOB001                                                                         
                                                  
   -------------------------------------
 
   Header from SEWARD:
                                                                               
        Integrals generated by Gateway/Seward, Wed Mar 20 20:29:51 2024        
 
   CASSCF title (first line only):
       (No title given)                                                        
 
   STATE IRREP:                             1
   SPIN MULTIPLICITY:                       1
   ACTIVE ELECTRONS:                        8
   MAX RAS1 HOLES:                          0
   MAX RAS3 ELECTRONS:                      0
   NR OF CONFIG:                          105
 
   The following data are common to all the states:
   ------------------------------------------------
   (note: frozen counts as inactive, deleted as secondary)
 
      Nr of irreps: 1
 
                 Total     No./Irrep 
      Irrep                  1
                             a
 
      INACTIVE       5       5
      ACTIVE         6       6
      SECONDARY     17      17
      BASIS         28      28
 
      RAS1           0       0
      RAS2           6       6
      RAS3           0       0
 
        MATRIX ELEMENTS WILL BE COMPUTED FOR THE FOLLOWING ONE-ELECTRON OPERATOR
 S, UNLESS ZERO BY SYMMETRY.
   (Herm=Hermitian, Anti=Antihermitian, Sing=Singlet operator, Trip=Triplet oper
 ator)
     MLTPL  0   1 (HERMSING)     MLTPL  1   1 (HERMSING)     MLTPL  1   2 (HERMSING)
     MLTPL  1   3 (HERMSING)     MLTPL  2   1 (HERMSING)     MLTPL  2   2 (HERMSING)
     MLTPL  2   3 (HERMSING)     MLTPL  2   4 (HERMSING)     MLTPL  2   5 (HERMSING)
     MLTPL  2   6 (HERMSING)     VELOCITY   1 (ANTISING)     VELOCITY   2 (ANTISING)
     VELOCITY   3 (ANTISING)     ANGMOM     1 (ANTISING)     ANGMOM     2 (ANTISING)
     ANGMOM     3 (ANTISING)     MLTPV  2   1 (ANTISING)     MLTPV  2   2 (ANTISING)
     MLTPV  2   3 (ANTISING)     MLTPV  2   4 (ANTISING)     MLTPV  2   5 (ANTISING)
     MLTPV  2   6 (ANTISING)
 
       EIGENSTATES OF A SPIN-FREE HAMILTONIAN WILL BE COMPUTED BASED ON:
 
  A Hamiltonian matrix computed by RASSI.
 
  Nr of states:                     6
 
   State:        1   2   3   4   5   6
  JobIph:        1   1   1   1   1   1
 Root nr:        1   2   3   4   5   6
 
  HAMILTONIAN MATRIX FOR THE ORIGINAL STATES:
 
  Diagonal, with energies
   -398.69153830   -398.50819965   -398.47857529   -398.35192376   -398.34587777
   -398.28241941
 
      OVERLAP MATRIX FOR THE ORIGINAL STATES:
 
  Diagonal, with elements
      1.00000000      1.00000000      1.00000000      1.00000000      1.00000000
      1.00000000
 
++ Matrix elements for input states
   --------------------------------
 
  MATRIX ELEMENTS OF 1-ELECTRON OPERATORS
  FOR THE RASSCF INPUT WAVE FUNCTIONS:
 
 
 PROPERTY: MLTPL  0   COMPONENT:*   1
 ORIGIN    :   0.00000000D+00   0.00000000D+00   0.00000000D+00
 STATE     :       1                2                3                4
 
     1       -0.127897692E-12 -0.150853278E-14 -0.109749488E-14 -0.110745831E-14
     2       -0.150853278E-14 -0.127897692E-12  0.776393283E-16 -0.286506372E-15
     3       -0.109749488E-14  0.776393283E-16 -0.131450406E-12 -0.648815304E-16
     4       -0.110745831E-14 -0.286506372E-15 -0.648815304E-16 -0.127897692E-12
     5        0.942994649E-16 -0.415065846E-16 -0.462185117E-15  0.393984967E-15
     6        0.180722706E-14 -0.185510505E-15  0.273967715E-15  0.792880063E-16
 
 
 PROPERTY: MLTPL  0   COMPONENT:*   1
 ORIGIN    :   0.00000000D+00   0.00000000D+00   0.00000000D+00
 STATE     :       5                6
 
     1        0.942994649E-16  0.180722706E-14
     2       -0.415065846E-16 -0.185510505E-15
     3       -0.462185117E-15  0.273967715E-15
     4        0.393984967E-15  0.792880063E-16
     5       -0.127897692E-12  0.557063076E-15
     6        0.557063076E-15 -0.131450406E-12
 
 
 PROPERTY: MLTPL  1   COMPONENT:*   1
 ORIGIN    :   0.00000000D+00   0.00000000D+00   0.00000000D+00
 STATE     :       1                2                3                4
 
     1        0.221285141E-11  0.175678072E-08  0.279386192E-01  0.238670108E-11
     2        0.175678072E-08 -0.108016905E-11 -0.530254466E-11 -0.475452430E-08
     3        0.279386192E-01 -0.530254466E-11 -0.802033644E-12  0.261107591    
     4        0.238670108E-11 -0.475452430E-08  0.261107591      0.340763863E-11
     5        0.437445692E-12  0.180308122      0.661636895E-08 -0.714639016E-11
     6       -0.981420751E-11  0.231414764     -0.144980453E-08 -0.834148723E-12
 
 
 PROPERTY: MLTPL  1   COMPONENT:*   1
 ORIGIN    :   0.00000000D+00   0.00000000D+00   0.00000000D+00
 STATE     :       5                6
 
     1        0.437445692E-12 -0.981420751E-11
     2        0.180308122      0.231414764    
     3        0.661636895E-08 -0.144980453E-08
     4       -0.714639016E-11 -0.834148723E-12
     5        0.305390929E-11 -0.586541012E-12
     6       -0.586541012E-12  0.307513621E-11
 
 
 PROPERTY: MLTPL  1   COMPONENT:*   2
 ORIGIN    :   0.00000000D+00   0.00000000D+00   0.00000000D+00
 STATE     :       1                2                3                4
 
     1        0.135071510E-09  0.350811073E-12  0.704751068E-11 -0.282032708E-08
     2        0.350811073E-12  0.681061596E-08 -0.632183266     -0.841807355E-12
     3        0.704751068E-11 -0.632183266     -0.149069201E-09  0.518296002E-11
     4       -0.282032708E-08 -0.841807355E-12  0.518296002E-11  0.403733458E-07
     5        0.165879208      0.169751194E-11  0.105894797E-11 -0.854423176    
     6         1.87380606      0.459949625E-11  0.154906142E-12 -0.969624305E-02
 
 
 PROPERTY: MLTPL  1   COMPONENT:*   2
 ORIGIN    :   0.00000000D+00   0.00000000D+00   0.00000000D+00
 STATE     :       5                6
 
     1        0.165879208       1.87380606    
     2        0.169751194E-11  0.459949625E-11
     3        0.105894797E-11  0.154906142E-12
     4       -0.854423176     -0.969624305E-02
     5       -0.349616150E-07 -0.987387061E-09
     6       -0.987387061E-09  0.629193919E-08
 
 
 PROPERTY: MLTPL  1   COMPONENT:*   3
 ORIGIN    :   0.00000000D+00   0.00000000D+00   0.00000000D+00
 STATE     :       1                2                3                4
 
     1        0.361649356     -0.208672507E-12 -0.364551050E-12  0.302836426    
     2       -0.208672507E-12 -0.764363089E-02  0.467418266E-08 -0.642335208E-12
     3       -0.364551050E-12  0.467418266E-08 -0.469933617     -0.162172727E-11
     4        0.302836426     -0.642335208E-12 -0.162172727E-11 -0.147614818    
     5        0.634154200E-08 -0.609942998E-12 -0.286174025E-11  0.599887051E-09
     6       -0.168174361E-07 -0.999538912E-12  0.172058874E-11  0.872424822E-09
 
 
 PROPERTY: MLTPL  1   COMPONENT:*   3
 ORIGIN    :   0.00000000D+00   0.00000000D+00   0.00000000D+00
 STATE     :       5                6
 
     1        0.634154200E-08 -0.168174361E-07
     2       -0.609942998E-12 -0.999538912E-12
     3       -0.286174025E-11  0.172058874E-11
     4        0.599887051E-09  0.872424822E-09
     5       -0.319396033E-02  0.470096750E-01
     6        0.470096750E-01  0.143523929    
 
 
 PROPERTY: MLTPL  2   COMPONENT:*   1
 ORIGIN    :   0.00000000D+00   0.00000000D+00   0.13406721D+00
 STATE     :       1                2                3                4
 
     1        -12.4208961      0.321826895E-11 -0.805195318E-12  0.146014217    
     2        0.321826895E-11  -10.4146049      0.445591736E-08 -0.148270551E-11
     3       -0.805195318E-12  0.445591736E-08  -10.7499846      0.129207617E-11
     4        0.146014217     -0.148270551E-11  0.129207617E-11  -12.6905214    
     5        0.373468859E-08 -0.580023570E-12  0.399523909E-11  0.375223430E-08
     6       -0.317531834E-08 -0.131484523E-11 -0.154774393E-12 -0.284267531E-08
 
 
 PROPERTY: MLTPL  2   COMPONENT:*   1
 ORIGIN    :   0.00000000D+00   0.00000000D+00   0.13406721D+00
 STATE     :       5                6
 
     1        0.373468859E-08 -0.317531834E-08
     2       -0.580023570E-12 -0.131484523E-11
     3        0.399523909E-11 -0.154774393E-12
     4        0.375223430E-08 -0.284267531E-08
     5        -12.7182709      0.245770881    
     6        0.245770881      -12.6889856    
 
 
 PROPERTY: MLTPL  2   COMPONENT:*   2
 ORIGIN    :   0.00000000D+00   0.00000000D+00   0.13406721D+00
 STATE     :       1                2                3                4
 
     1       -0.161129869E-11  0.583115157      0.323864668E-08  0.540365953E-11
     2        0.583115157      0.128620619E-10 -0.296413946E-11  0.471150094    
     3        0.323864668E-08 -0.296413946E-11 -0.198397025E-11 -0.114501140E-07
     4        0.540365953E-11  0.471150094     -0.114501140E-07 -0.227692689E-11
     5       -0.873313381E-12  0.839459928E-08  0.591081113     -0.219320243E-11
     6        0.278116448E-11  0.490906944E-08 -0.522854883     -0.132310717E-11
 
 
 PROPERTY: MLTPL  2   COMPONENT:*   2
 ORIGIN    :   0.00000000D+00   0.00000000D+00   0.13406721D+00
 STATE     :       5                6
 
     1       -0.873313381E-12  0.278116448E-11
     2        0.839459928E-08  0.490906944E-08
     3        0.591081113     -0.522854883    
     4       -0.219320243E-11 -0.132310717E-11
     5        0.106057868E-11  0.441990418E-11
     6        0.441990418E-11  0.222478099E-11
 
 
 PROPERTY: MLTPL  2   COMPONENT:*   3
 ORIGIN    :   0.00000000D+00   0.00000000D+00   0.13406721D+00
 STATE     :       1                2                3                4
 
     1        0.129160778E-11 -0.939995581E-10  0.313352548     -0.318041102E-12
     2       -0.939995581E-10 -0.376488696E-11  0.687224530E-11  0.160126500E-07
     3        0.313352548      0.687224530E-11 -0.298411010E-11 -0.689034323    
     4       -0.318041102E-12  0.160126500E-07 -0.689034323     -0.137008172E-11
     5       -0.300882314E-11 -0.630779973     -0.175882574E-07  0.598326147E-11
     6       -0.355032339E-11 -0.620615971      0.374833573E-08 -0.478656240E-13
 
 
 PROPERTY: MLTPL  2   COMPONENT:*   3
 ORIGIN    :   0.00000000D+00   0.00000000D+00   0.13406721D+00
 STATE     :       5                6
 
     1       -0.300882314E-11 -0.355032339E-11
     2       -0.630779973     -0.620615971    
     3       -0.175882574E-07  0.374833573E-08
     4        0.598326147E-11 -0.478656240E-13
     5        0.605918836E-12  0.170579813E-11
     6        0.170579813E-11  0.258902092E-12
 
 
 PROPERTY: MLTPL  2   COMPONENT:*   4
 ORIGIN    :   0.00000000D+00   0.00000000D+00   0.13406721D+00
 STATE     :       1                2                3                4
 
     1        -9.86826820      0.125532090E-10 -0.478181804E-12  0.601738529    
     2        0.125532090E-10  -12.5434257      0.108453015E-07  0.153013314E-11
     3       -0.478181804E-12  0.108453015E-07  -12.5912315     -0.108672600E-11
     4        0.601738529      0.153013314E-11 -0.108672600E-11  -11.6388093    
     5        0.156189763E-07  0.225472232E-12 -0.790852840E-12  0.563166414E-08
     6       -0.214741001E-07  0.141379373E-12  0.221009559E-13  0.177221679E-07
 
 
 PROPERTY: MLTPL  2   COMPONENT:*   4
 ORIGIN    :   0.00000000D+00   0.00000000D+00   0.13406721D+00
 STATE     :       5                6
 
     1        0.156189763E-07 -0.214741001E-07
     2        0.225472232E-12  0.141379373E-12
     3       -0.790852840E-12  0.221009559E-13
     4        0.563166414E-08  0.177221679E-07
     5        -11.4127317     -0.593037490    
     6       -0.593037490      -11.3384845    
 
 
 PROPERTY: MLTPL  2   COMPONENT:*   5
 ORIGIN    :   0.00000000D+00   0.00000000D+00   0.13406721D+00
 STATE     :       1                2                3                4
 
     1       -0.613108897E-09 -0.827775878E-12  0.694685146E-11  0.118016146E-07
     2       -0.827775878E-12  0.300271881E-07  -3.06694417     -0.397993373E-11
     3        0.694685146E-11  -3.06694417     -0.105173894E-07  0.127331668E-10
     4        0.118016146E-07 -0.397993373E-11  0.127331668E-10  0.206469968E-06
     5       -0.559131258     -0.630229977E-11  0.452969265E-11  -4.47454077    
     6         2.88868706      0.211044257E-11  0.148515477E-11 -0.165463335    
 
 
 PROPERTY: MLTPL  2   COMPONENT:*   5
 ORIGIN    :   0.00000000D+00   0.00000000D+00   0.13406721D+00
 STATE     :       5                6
 
     1       -0.559131258       2.88868706    
     2       -0.630229977E-11  0.211044257E-11
     3        0.452969265E-11  0.148515477E-11
     4        -4.47454077     -0.165463335    
     5       -0.188522503E-06 -0.447539927E-08
     6       -0.447539927E-08  0.331540968E-07
 
 
 PROPERTY: MLTPL  2   COMPONENT:*   6
 ORIGIN    :   0.00000000D+00   0.00000000D+00   0.13406721D+00
 STATE     :       1                2                3                4
 
     1        -9.69552255      0.464424484E-11 -0.973375633E-12 -0.247385903    
     2        0.464424484E-11  -12.2052671      0.206351859E-07  0.371685766E-12
     3       -0.973375633E-12  0.206351859E-07  -14.0111760      0.677752138E-12
     4       -0.247385903      0.371685766E-12  0.677752138E-12  -11.8671380    
     5       -0.639762802E-08  0.313831969E-11 -0.365007470E-11  0.150160313E-07
     6       -0.299376160E-07  0.303395083E-11 -0.547592854E-11 -0.370624012E-07
 
 
 PROPERTY: MLTPL  2   COMPONENT:*   6
 ORIGIN    :   0.00000000D+00   0.00000000D+00   0.13406721D+00
 STATE     :       5                6
 
     1       -0.639762802E-08 -0.299376160E-07
     2        0.313831969E-11  0.303395083E-11
     3       -0.365007470E-11 -0.547592854E-11
     4        0.150160313E-07 -0.370624012E-07
     5        -11.8457674       1.64481342    
     6         1.64481342      -11.7244291    
 
 
 PROPERTY: VELOCITY   COMPONENT:*   1
 ORIGIN    :   0.00000000D+00   0.00000000D+00   0.00000000D+00
 STATE     :       1                2                3                4
 
     1       -0.435650623E-27 -0.808100128E-09  0.360555236E-01 -0.799750406E-12
     2        0.808100128E-09  0.858041537E-27  0.378224784E-11  0.628322221E-09
     3       -0.360555236E-01 -0.378224784E-11 -0.289249574E-27 -0.501676947E-01
     4        0.799750406E-12 -0.628322221E-09  0.501676947E-01 -0.369646198E-27
     5        0.182357761E-11  0.222175950E-01  0.125749689E-08 -0.849628706E-13
     6       -0.503387648E-11  0.452101644E-01 -0.547311488E-09  0.298188578E-11
 
 
 PROPERTY: VELOCITY   COMPONENT:*   1
 ORIGIN    :   0.00000000D+00   0.00000000D+00   0.00000000D+00
 STATE     :       5                6
 
     1       -0.182357761E-11  0.503387648E-11
     2       -0.222175950E-01 -0.452101644E-01
     3       -0.125749689E-08  0.547311488E-09
     4        0.849628706E-13 -0.298188578E-11
     5       -0.107617152E-27  0.144748949E-12
     6       -0.144748949E-12  0.684146174E-27
 
 
 PROPERTY: VELOCITY   COMPONENT:*   2
 ORIGIN    :   0.00000000D+00   0.00000000D+00   0.00000000D+00
 STATE     :       1                2                3                4
 
     1       -0.424263072E-17 -0.495185806E-12 -0.682950966E-11  0.658593333E-09
     2        0.495185806E-12 -0.120778117E-16 -0.544104579E-02  0.469844912E-12
     3        0.682950966E-11  0.544104579E-02  0.166029883E-16 -0.168371761E-11
     4       -0.658593333E-09 -0.469844912E-12  0.168371761E-11  0.123383595E-16
     5        0.357929119E-01  0.138193690E-11 -0.632787754E-12  0.772550137E-02
     6        0.685441641      0.947557369E-12  0.429908038E-12  0.288774825E-01
 
 
 PROPERTY: VELOCITY   COMPONENT:*   2
 ORIGIN    :   0.00000000D+00   0.00000000D+00   0.00000000D+00
 STATE     :       5                6
 
     1       -0.357929119E-01 -0.685441641    
     2       -0.138193690E-11 -0.947557369E-12
     3        0.632787754E-12 -0.429908038E-12
     4       -0.772550137E-02 -0.288774825E-01
     5       -0.344812701E-16 -0.800434961E-09
     6        0.800434961E-09  0.199033875E-16
 
 
 PROPERTY: VELOCITY   COMPONENT:*   3
 ORIGIN    :   0.00000000D+00   0.00000000D+00   0.00000000D+00
 STATE     :       1                2                3                4
 
     1       -0.641044191E-16 -0.405044338E-11  0.214391831E-11 -0.112227168    
     2        0.405044338E-11  0.223335695E-16  0.615743428E-10  0.117997150E-12
     3       -0.214391831E-11 -0.615743428E-10  0.618120757E-16  0.584686549E-12
     4        0.112227168     -0.117997150E-12 -0.584686549E-12 -0.911145673E-16
     5        0.231525664E-08 -0.320413932E-12 -0.464486021E-12 -0.597499168E-10
     6       -0.678677112E-08 -0.332794298E-12 -0.361210599E-12  0.473478978E-09
 
 
 PROPERTY: VELOCITY   COMPONENT:*   3
 ORIGIN    :   0.00000000D+00   0.00000000D+00   0.00000000D+00
 STATE     :       5                6
 
     1       -0.231525664E-08  0.678677112E-08
     2        0.320413932E-12  0.332794298E-12
     3        0.464486021E-12  0.361210599E-12
     4        0.597499168E-10 -0.473478978E-09
     5        0.166248511E-17 -0.874843033E-03
     6        0.874843033E-03 -0.669264944E-16
 
 
 PROPERTY: ANGMOM     COMPONENT:*   1
 ORIGIN    :   0.00000000D+00   0.00000000D+00   0.00000000D+00
 STATE     :       1                2                3                4
 
     1       -0.651421504E-16  0.172066609E-11  0.269150733E-12 -0.129272629E-07
     2       -0.172066609E-11 -0.599134276E-16 -0.380628918     -0.744834645E-12
     3       -0.269150733E-12  0.380628918      0.139168827E-15 -0.883689099E-13
     4        0.129272629E-07  0.744834645E-12  0.883689099E-13 -0.663308394E-16
     5       -0.616262695      0.312259896E-12  0.140342509E-12  0.590999974E-01
     6       -0.161563644     -0.499067837E-12  0.958900100E-12  -1.04659179    
 
 
 PROPERTY: ANGMOM     COMPONENT:*   1
 ORIGIN    :   0.00000000D+00   0.00000000D+00   0.00000000D+00
 STATE     :       5                6
 
     1        0.616262695      0.161563644    
     2       -0.312259896E-12  0.499067837E-12
     3       -0.140342509E-12 -0.958900100E-12
     4       -0.590999974E-01   1.04659179    
     5       -0.417658476E-16  0.200257085E-07
     6       -0.200257085E-07 -0.447366396E-16
 
 
 PROPERTY: ANGMOM     COMPONENT:*   2
 ORIGIN    :   0.00000000D+00   0.00000000D+00   0.00000000D+00
 STATE     :       1                2                3                4
 
     1        0.147273791E-26  0.146334883E-08 -0.501048412      0.316800295E-12
     2       -0.146334883E-08 -0.156822486E-26 -0.151277263E-11  0.160228805E-07
     3        0.501048412      0.151277263E-11  0.406173878E-27 -0.721293301    
     4       -0.316800295E-12 -0.160228805E-07  0.721293301      0.159322141E-26
     5        0.532825321E-12  0.621155999      0.180798075E-07 -0.173176062E-11
     6        0.336630409E-11  0.593705532     -0.899017222E-09 -0.277141597E-11
 
 
 PROPERTY: ANGMOM     COMPONENT:*   2
 ORIGIN    :   0.00000000D+00   0.00000000D+00   0.00000000D+00
 STATE     :       5                6
 
     1       -0.532825321E-12 -0.336630409E-11
     2       -0.621155999     -0.593705532    
     3       -0.180798075E-07  0.899017222E-09
     4        0.173176062E-11  0.277141597E-11
     5       -0.186364004E-27 -0.765885417E-12
     6        0.765885417E-12 -0.168118371E-26
 
 
 PROPERTY: ANGMOM     COMPONENT:*   3
 ORIGIN    :   0.00000000D+00   0.00000000D+00   0.00000000D+00
 STATE     :       1                2                3                4
 
     1       -0.719700596E-27  0.667379087      0.271913769E-08 -0.151469842E-11
     2       -0.667379087      0.169002253E-26  0.219087481E-11 -0.561393323    
     3       -0.271913769E-08 -0.219087481E-11 -0.190117014E-25  0.118446949E-07
     4        0.151469842E-11  0.561393323     -0.118446949E-07  0.230137556E-26
     5       -0.243088362E-12  0.101854771E-07  0.618827309      0.112965534E-11
     6        0.141229934E-11  0.844001645E-08 -0.536556896      0.240364550E-11
 
 
 PROPERTY: ANGMOM     COMPONENT:*   3
 ORIGIN    :   0.00000000D+00   0.00000000D+00   0.00000000D+00
 STATE     :       5                6
 
     1        0.243088362E-12 -0.141229934E-11
     2       -0.101854771E-07 -0.844001645E-08
     3       -0.618827309      0.536556896    
     4       -0.112965534E-11 -0.240364550E-11
     5       -0.227518818E-26  0.528857674E-12
     6       -0.528857674E-12  0.756717616E-26
 
 
 PROPERTY: MLTPV  2   COMPONENT:*   1
 ORIGIN    :   0.00000000D+00   0.00000000D+00   0.13406721D+00
 STATE     :       1                2                3                4
 
     1       -0.112821712E-15 -0.754395036E-11  0.735047540E-11  0.237116610    
     2        0.754395036E-11  0.208618333E-16 -0.522175182     -0.544255696E-12
     3       -0.735047540E-11  0.522175182      0.129293720E-15 -0.982199256E-12
     4       -0.237116610      0.544255696E-12  0.982199256E-12  0.655684424E-16
     5        0.345639335      0.188010162E-11  0.659722241E-12 -0.422728898E-01
     6       -0.615807052E-01  0.756949699E-12 -0.950617877E-12 -0.639741470    
 
 
 PROPERTY: MLTPV  2   COMPONENT:*   1
 ORIGIN    :   0.00000000D+00   0.00000000D+00   0.13406721D+00
 STATE     :       5                6
 
     1       -0.345639335      0.615807052E-01
     2       -0.188010162E-11 -0.756949699E-12
     3       -0.659722241E-12  0.950617877E-12
     4        0.422728898E-01  0.639741470    
     5        0.287190515E-15 -0.655120601E-01
     6        0.655120601E-01  0.509514857E-16
 
 
 PROPERTY: MLTPV  2   COMPONENT:*   2
 ORIGIN    :   0.00000000D+00   0.00000000D+00   0.13406721D+00
 STATE     :       1                2                3                4
 
     1        0.138891478E-26  0.425808683E-01  0.645637080E-09  0.713750347E-11
     2       -0.425808683E-01  0.271092963E-28 -0.206183851E-12  0.390773016E-01
     3       -0.645637080E-09  0.206183851E-12  0.272137921E-26 -0.893894106E-09
     4       -0.713750347E-11 -0.390773016E-01  0.893894106E-09 -0.130083275E-26
     5        0.108741653E-11 -0.703477400E-09 -0.488984616E-01 -0.668946740E-13
     6       -0.233700290E-11 -0.438092959E-09  0.552689611E-01 -0.739368237E-12
 
 
 PROPERTY: MLTPV  2   COMPONENT:*   2
 ORIGIN    :   0.00000000D+00   0.00000000D+00   0.13406721D+00
 STATE     :       5                6
 
     1       -0.108741653E-11  0.233700290E-11
     2        0.703477400E-09  0.438092959E-09
     3        0.488984616E-01 -0.552689611E-01
     4        0.668946740E-13  0.739368237E-12
     5        0.132460586E-26 -0.109649696E-11
     6        0.109649696E-11  0.118666413E-26
 
 
 PROPERTY: MLTPV  2   COMPONENT:*   3
 ORIGIN    :   0.00000000D+00   0.00000000D+00   0.13406721D+00
 STATE     :       1                2                3                4
 
     1        0.237468847E-27  0.610041557E-09 -0.123557284E-01 -0.277326965E-12
     2       -0.610041557E-09 -0.108911142E-26 -0.517975434E-12  0.123036285E-08
     3        0.123557284E-01  0.517975434E-12  0.609175337E-27 -0.553377608E-01
     4        0.277326965E-12 -0.123036285E-08  0.553377608E-01  0.247090401E-27
     5        0.361761076E-11  0.494111895E-01  0.140222045E-08 -0.239755410E-12
     6        0.144839095E-11  0.489777360E-01 -0.923703249E-10 -0.225361664E-12
 
 
 PROPERTY: MLTPV  2   COMPONENT:*   3
 ORIGIN    :   0.00000000D+00   0.00000000D+00   0.13406721D+00
 STATE     :       5                6
 
     1       -0.361761076E-11 -0.144839095E-11
     2       -0.494111895E-01 -0.489777360E-01
     3       -0.140222045E-08  0.923703249E-10
     4        0.239755410E-12  0.225361664E-12
     5       -0.975110053E-27 -0.196512653E-12
     6        0.196512653E-12  0.308408138E-27
 
 
 PROPERTY: MLTPV  2   COMPONENT:*   4
 ORIGIN    :   0.00000000D+00   0.00000000D+00   0.13406721D+00
 STATE     :       1                2                3                4
 
     1       -0.125846856E-15 -0.806846213E-11  0.726341446E-11  0.319264139    
     2        0.806846213E-11  0.723792782E-16 -0.522175182      0.389162225E-12
     3       -0.726341446E-11  0.522175182      0.152026541E-15 -0.945371029E-12
     4       -0.319264139     -0.389162225E-12  0.945371029E-12  0.175546723E-15
     5        0.345639332      0.177820001E-11 -0.374991116E-12 -0.422728898E-01
     6       -0.615806979E-01  0.740032830E-12 -0.249875511E-12 -0.639741472    
 
 
 PROPERTY: MLTPV  2   COMPONENT:*   4
 ORIGIN    :   0.00000000D+00   0.00000000D+00   0.13406721D+00
 STATE     :       5                6
 
     1       -0.345639332      0.615806979E-01
     2       -0.177820001E-11 -0.740032830E-12
     3        0.374991116E-12  0.249875511E-12
     4        0.422728898E-01  0.639741472    
     5        0.445164710E-15 -0.126724102    
     6        0.126724102      0.134613384E-15
 
 
 PROPERTY: MLTPV  2   COMPONENT:*   5
 ORIGIN    :   0.00000000D+00   0.00000000D+00   0.13406721D+00
 STATE     :       1                2                3                4
 
     1       -0.237325652E-16  0.525836289E-12 -0.663626291E-12  0.355028110E-08
     2       -0.525836289E-12 -0.172110439E-16 -0.747221164E-01 -0.250374746E-12
     3        0.663626291E-12  0.747221164E-01  0.329008700E-16 -0.181356956E-11
     4       -0.355028110E-08  0.250374746E-12  0.181356956E-11 -0.717187619E-16
     5        0.190028697      0.192640394E-11 -0.126572488E-12 -0.122198451E-01
     6        -1.08368312      0.678983967E-12  0.315355019E-12 -0.102587727    
 
 
 PROPERTY: MLTPV  2   COMPONENT:*   5
 ORIGIN    :   0.00000000D+00   0.00000000D+00   0.13406721D+00
 STATE     :       5                6
 
     1       -0.190028697       1.08368312    
     2       -0.192640394E-11 -0.678983967E-12
     3        0.126572488E-12 -0.315355019E-12
     4        0.122198451E-01  0.102587727    
     5        0.547360214E-16  0.257116048E-08
     6       -0.257116048E-08 -0.136119550E-15
 
 
 PROPERTY: MLTPV  2   COMPONENT:*   6
 ORIGIN    :   0.00000000D+00   0.00000000D+00   0.13406721D+00
 STATE     :       1                2                3                4
 
     1       -0.112037243E-15 -0.286141939E-11  0.737407730E-11  0.199148249    
     2        0.286141939E-11  0.822020154E-16 -0.522175183      0.681249777E-12
     3       -0.737407730E-11  0.522175183      0.857513842E-16  0.321244559E-12
     4       -0.199148249     -0.681249777E-12 -0.321244559E-12  0.251277401E-15
     5        0.345639336      0.719210661E-12 -0.105072121E-11 -0.422728899E-01
     6       -0.615806947E-01 -0.441428811E-12  0.111149429E-11 -0.639741472    
 
 
 PROPERTY: MLTPV  2   COMPONENT:*   6
 ORIGIN    :   0.00000000D+00   0.00000000D+00   0.13406721D+00
 STATE     :       5                6
 
     1       -0.345639336      0.615806947E-01
     2       -0.719210661E-12  0.441428811E-12
     3        0.105072121E-11 -0.111149429E-11
     4        0.422728899E-01  0.639741472    
     5        0.387226649E-15 -0.123494890    
     6        0.123494890      0.182661534E-15
 
--
 
::    RASSI State    1     Total energy:    -398.69153830277969
::    RASSI State    2     Total energy:    -398.50819964610719
::    RASSI State    3     Total energy:    -398.47857528655823
::    RASSI State    4     Total energy:    -398.35192376186069
::    RASSI State    5     Total energy:    -398.34587777398139
::    RASSI State    6     Total energy:    -398.28241940661644
 
 
 
      ****************************************************************************************************
      *                                                                                                  *
      *                                         Spin-free section                                        *
      *                                                                                                  *
      *                 Note: index according to input order, order according to energy.                 *
      *                                                                                                  *
      ****************************************************************************************************
 
 
 
  SPIN-FREE ENERGIES:
  (Shifted by EMIN (a.u.) =       -398.6915383028)
 
 SF State       Relative EMIN(au)   Rel lowest level(eV)    D:o, cm**(-1)
 
     1             0.0000000000        0.0000000000              0.0000
     2             0.1833386567        4.9888990005          40238.1841
     3             0.2129630162        5.7950188905          46739.9795
     4             0.3396145409        9.2413824477          74536.7762
     5             0.3456605288        9.4059021591          75863.7171
     6             0.4091188962       11.1326923040          89791.2189
 
++ Dipole transition strengths (spin-free states):
   -----------------------------------------------
     for osc. strength at least  1.00000000E-05
 
      From   To        Osc. strength     Einstein coefficients Ax, Ay, Az (sec-1)    Total A (sec-1)
     -----------------------------------------------------------------------------------------------
         1    3       1.10821190E-04  1.61488674E+05  1.02755169E-14  2.74945385E-17  1.61488674E+05
         1    4       2.07640106E-02  4.77941247E-15  6.67386490E-09  7.69475291E+07  7.69475291E+07
         1    5       6.34077639E-03  1.69284534E-16  2.43418119E+07  3.55761332E-08  2.43418119E+07
         1    6       9.57651646E-01  1.41279358E-13  5.15012205E+09  4.14846867E-07  5.15012205E+09
         2    3       7.89302908E-03  1.56579609E-17  2.22562775E+05  1.21670222E-11  2.22562775E+05
         2    5       3.51816629E-03  2.97838841E+06  2.63983285E-16  3.36985458E-17  2.97838841E+06
         2    6       8.06077498E-03  1.32026023E+07  5.21552403E-15  2.46215138E-16  1.32026023E+07
         3    4       5.75649536E-03  2.96681105E+06  1.16897873E-15  1.14448538E-16  2.96681105E+06
         4    5       2.94253782E-03  2.41765812E-19  3.45595025E+03  1.70357189E-15  3.45595025E+03
         5    6       9.34915013E-05  1.88314203E-18  5.33655724E-12  1.20965300E+04  1.20965300E+04
     -----------------------------------------------------------------------------------------------
--
 
++ Velocity transition strengths (spin-free states):
   -------------------------------------------------
     for osc. strength at least  1.00000000E-05
 
      From   To        Osc. strength     Einstein coefficients Ax, Ay, Az (sec-1)    Total A (sec-1)
     -----------------------------------------------------------------------------------------------
         1    3       4.06956664E-03  5.93017387E+06  2.12766310E-13  2.09671924E-14  5.93017387E+06
         1    4       2.47239851E-02  4.65280488E-15  3.15529930E-09  9.16224522E+07  9.16224522E+07
         1    5       2.47088773E-03  2.46216932E-14  9.48557095E+06  3.96887747E-08  9.48557095E+06
         1    6       7.65596909E-01  2.22062014E-13  4.11727744E+09  4.03641276E-07  4.11727744E+09
         2    3       6.66230534E-04  9.07754817E-15  1.87859584E+04  2.40584789E-12  1.87859584E+04
         2    5       2.02733626E-03  1.71629034E+06  6.64007668E-15  3.56959916E-16  1.71629034E+06
[...]
         1    6       9.57651645E-01  1.41279358E-13  5.15012203E+09  4.14846866E-07  5.15012203E+09
         2    3       7.89302855E-03  1.56579578E-17  2.22562730E+05  1.21670197E-11  2.22562730E+05
         2    5       3.51816628E-03  2.97838838E+06  2.63983282E-16  3.36985455E-17  2.97838838E+06
         2    6       8.06077496E-03  1.32026022E+07  5.21552400E-15  2.46215136E-16  1.32026022E+07
         3    4       5.75649542E-03  2.96681114E+06  1.16897877E-15  1.14448541E-16  2.96681114E+06
         7    8       8.69597977E-03  4.79508853E+06  1.65760687E-12  2.86573691E-21  4.79508853E+06
         4    5       2.94253793E-03  2.41765838E-19  3.45595062E+03  1.70357207E-15  3.45595062E+03
         5    6       9.34915014E-05  1.88314204E-18  5.33655725E-12  1.20965300E+04  1.20965300E+04
     -----------------------------------------------------------------------------------------------
--
 
++ Velocity transition strengths (spin-free states):
   -------------------------------------------------
     for osc. strength at least  1.00000000E-05
 
      From   To        Osc. strength     Einstein coefficients Ax, Ay, Az (sec-1)    Total A (sec-1)
     -----------------------------------------------------------------------------------------------
         1    3       4.06956668E-03  5.93017382E+06  2.12766308E-13  2.09671922E-14  5.93017382E+06
         1    4       2.47239852E-02  4.65280487E-15  3.15529929E-09  9.16224520E+07  9.16224520E+07
         1    5       2.47088774E-03  2.46216932E-14  9.48557094E+06  3.96887746E-08  9.48557094E+06
         1    6       7.65596909E-01  2.22062013E-13  4.11727744E+09  4.03641276E-07  4.11727744E+09
         2    3       6.66230579E-04  9.07754756E-15  1.87859572E+04  2.40584773E-12  1.87859572E+04
         2    5       2.02733627E-03  1.71629033E+06  6.64007666E-15  3.56959915E-16  1.71629033E+06
         2    6       6.03524611E-03  9.88502395E+06  4.34226756E-15  5.35620644E-16  9.88502395E+06
         3    4       1.32478866E-02  6.82776147E+06  7.69074763E-15  9.27419574E-16  6.82776147E+06
         7    8       1.93206973E-02  1.06537108E+07  1.79408923E-12  6.17466797E-18  1.06537108E+07
         4    5       6.58104411E-03  9.34857179E-19  7.72930172E+03  4.62340057E-13  7.72930172E+03
         4    6       7.99862576E-03  1.32377341E-14  1.24151023E+06  3.33759049E-10  1.24151023E+06
     -----------------------------------------------------------------------------------------------
--
 
++ Length and velocity gauge comparison (spin-free states):
   --------------------------------------------------------
 
 --------------------------------------------------
 A comparison between the dipole oscillator strengths in 
 length and velocity gauge will be performed
 
     All dipole oscillator differences above the tolerance of   1.00000000E-01  will be printed 
 
 Due to basis set deficiency these oscillator may be problematic 
 
 The tolerance is defined as ABS(1-O_l/O_v) 
 O_l : dipole oscillator strength in length gauge
 O_p : dipole oscillator strength in velocity gauge
 --------------------------------------------------
 
  Problematic transitions have been found
 
      From   To       Difference (%) Osc. st. (len.) Osc. st. (vel.)
     ---------------------------------------------------------------
         1    3            97.276831  1.10821188E-04  4.06956668E-03
         1    4            16.016733  2.07640105E-02  2.47239852E-02
         1    5           156.619364  6.34077638E-03  2.47088774E-03
         1    6            25.085620  9.57651645E-01  7.65596909E-01
         2    3          1084.729252  7.89302855E-03  6.66230579E-04
         2    5            73.536396  3.51816628E-03  2.02733627E-03
         2    6            33.561661  8.06077496E-03  6.03524611E-03
         3    4            56.547821  5.75649542E-03  1.32478866E-02
         7    8            54.991377  8.69597977E-03  1.93206973E-02
         4    5            55.287674  2.94253793E-03  6.58104411E-03
         4    6      --------------- below threshold  7.99862576E-03
         5    6      ---------------  9.34915014E-05 below threshold
     ---------------------------------------------------------------
 
 Number of problematic transitions =                     12
 
--
 
 Electric-dipole - electric-octupole not included
 Electric-dipole - magnetic-quadrupole not included
 
 
 
      ****************************************************************************************************
      *                                                                                                  *
      *                                         Spin-orbit section                                       *
      *                                                                                                  *
      ****************************************************************************************************
 
 
 Complex SO-Hamiltonian matrix elements over
 spin components of spin-free eigenstates (SFS):
 (In cm-1. Print threshold:      0.000 cm-1)
 ----------------------------------------------------------------------
 
  I1  S1  MS1    I2  S2  MS2    Real part    Imag part      Absolute
     1  0.0  0.0    1  0.0  0.0         0.000         0.000         0.000
     2  0.0  0.0    1  0.0  0.0         0.000         0.000         0.000
     2  0.0  0.0    2  0.0  0.0         0.000         0.000         0.000
     3  0.0  0.0    1  0.0  0.0         0.000         0.000         0.000
     3  0.0  0.0    2  0.0  0.0         0.000         0.000         0.000
     3  0.0  0.0    3  0.0  0.0         0.000         0.000         0.000
     4  0.0  0.0    1  0.0  0.0         0.000         0.000         0.000
     4  0.0  0.0    2  0.0  0.0         0.000         0.000         0.000
     4  0.0  0.0    3  0.0  0.0         0.000         0.000         0.000
     4  0.0  0.0    4  0.0  0.0         0.000         0.000         0.000
     5  0.0  0.0    1  0.0  0.0         0.000         0.000         0.000
     5  0.0  0.0    2  0.0  0.0         0.000         0.000         0.000
     5  0.0  0.0    3  0.0  0.0         0.000         0.000         0.000
     5  0.0  0.0    4  0.0  0.0         0.000         0.000         0.000
     5  0.0  0.0    5  0.0  0.0         0.000         0.000         0.000
     6  0.0  0.0    1  0.0  0.0         0.000         0.000         0.000
     6  0.0  0.0    2  0.0  0.0         0.000         0.000         0.000
     6  0.0  0.0    3  0.0  0.0         0.000         0.000         0.000
     6  0.0  0.0    4  0.0  0.0         0.000         0.000         0.000
     6  0.0  0.0    5  0.0  0.0         0.000         0.000         0.000
     6  0.0  0.0    6  0.0  0.0         0.000         0.000         0.000
     7  0.5 -0.5    1  0.0  0.0         0.000         0.000         0.000
     7  0.5 -0.5    2  0.0  0.0         0.000         0.000         0.000
     7  0.5 -0.5    3  0.0  0.0         0.000         0.000         0.000
     7  0.5 -0.5    4  0.0  0.0         0.000         0.000         0.000
     7  0.5 -0.5    5  0.0  0.0         0.000         0.000         0.000
     7  0.5 -0.5    6  0.0  0.0         0.000         0.000         0.000
     7  0.5 -0.5    7  0.5 -0.5         0.000         0.000         0.000
     8  0.5  0.5    1  0.0  0.0         0.000         0.000         0.000
     8  0.5  0.5    2  0.0  0.0         0.000         0.000         0.000
     8  0.5  0.5    3  0.0  0.0         0.000         0.000         0.000
     8  0.5  0.5    4  0.0  0.0         0.000         0.000         0.000
     8  0.5  0.5    5  0.0  0.0         0.000         0.000         0.000
     8  0.5  0.5    6  0.0  0.0         0.000         0.000         0.000
     8  0.5  0.5    7  0.5 -0.5        -0.000         0.000         0.000
     8  0.5  0.5    8  0.5  0.5         0.000        -0.000         0.000
     9  0.5 -0.5    1  0.0  0.0         0.000         0.000         0.000
     9  0.5 -0.5    2  0.0  0.0         0.000         0.000         0.000
     9  0.5 -0.5    3  0.0  0.0         0.000         0.000         0.000
     9  0.5 -0.5    4  0.0  0.0         0.000         0.000         0.000
     9  0.5 -0.5    5  0.0  0.0         0.000         0.000         0.000
     9  0.5 -0.5    6  0.0  0.0         0.000         0.000         0.000
     9  0.5 -0.5    7  0.5 -0.5         0.000        -0.000         0.000
     9  0.5 -0.5    8  0.5  0.5      -157.607         0.000       157.607
     9  0.5 -0.5    9  0.5 -0.5         0.000         0.000         0.000
    10  0.5  0.5    1  0.0  0.0         0.000         0.000         0.000
    10  0.5  0.5    2  0.0  0.0         0.000         0.000         0.000
    10  0.5  0.5    3  0.0  0.0         0.000         0.000         0.000
    10  0.5  0.5    4  0.0  0.0         0.000         0.000         0.000
    10  0.5  0.5    5  0.0  0.0         0.000         0.000         0.000
    10  0.5  0.5    6  0.0  0.0         0.000         0.000         0.000
    10  0.5  0.5    7  0.5 -0.5       157.607         0.000       157.607
    10  0.5  0.5    8  0.5  0.5         0.000         0.000         0.000
    10  0.5  0.5    9  0.5 -0.5         0.000         0.000         0.000
    10  0.5  0.5   10  0.5  0.5         0.000        -0.000         0.000
 ----------------------------------------------------------------------
 
       Total energies including SO-coupling:
::    SO-RASSI State    1     Total energy:    -398.69153830164896
::    SO-RASSI State    2     Total energy:    -398.50819964499362
::    SO-RASSI State    3     Total energy:    -398.47857528744146
::    SO-RASSI State    4     Total energy:    -398.37040260518324
::    SO-RASSI State    5     Total energy:    -398.37040260518324
::    SO-RASSI State    6     Total energy:    -398.35192376145733
::    SO-RASSI State    7     Total energy:    -398.34587777336105
::    SO-RASSI State    8     Total energy:    -398.28241940594546
::    SO-RASSI State    9     Total energy:    -398.23939101742661
::    SO-RASSI State   10     Total energy:    -398.23939101742661
 
 
   Eigenvalues of complex Hamiltonian:
   -----------------------------------
  (Shifted by EMIN (a.u.) =       -398.6915383016)
 
 SO State       Relative EMIN(au)   Rel lowest level(eV)    D:o, cm**(-1)
 
     1             0.0000000000        0.0000000000              0.0000
     2             0.1833386567        4.9888990001          40238.1841
     3             0.2129630142        5.7950188357          46739.9790
     4             0.3211356965        8.7385474739          70481.1386
     5             0.3211356965        8.7385474739          70481.1386
     6             0.3396145402        9.2413824279          74536.7760
     7             0.3456605283        9.4059021452          75863.7170
     8             0.4091188957       11.1326922915          89791.2188
     9             0.4521472842       12.3035543910          99234.8585
    10             0.4521472842       12.3035543910          99234.8585
 
 
 Weights of the five most important spin-orbit-free states for each spin-orbit s
 tate.
 
 SO State  Total energy (au)           Spin-free states, spin, and weights
 -------------------------------------------------------------------------------
 ------------------------
    1         0.000000       1 0.0  1.0000    8 0.5  0.0000    7 0.5  0.0000    6 0.0  0.0000    5 0.0  0.0000
    2         0.183339       2 0.0  1.0000    8 0.5  0.0000    7 0.5  0.0000    6 0.0  0.0000    5 0.0  0.0000
    3         0.212963       3 0.0  1.0000    8 0.5  0.0000    7 0.5  0.0000    6 0.0  0.0000    5 0.0  0.0000
    4         0.321136       7 0.5  1.0000    8 0.5  0.0000    6 0.0  0.0000    5 0.0  0.0000    4 0.0  0.0000
    5         0.321136       7 0.5  1.0000    8 0.5  0.0000    6 0.0  0.0000    5 0.0  0.0000    4 0.0  0.0000
    6         0.339615       4 0.0  1.0000    8 0.5  0.0000    7 0.5  0.0000    6 0.0  0.0000    5 0.0  0.0000
    7         0.345661       5 0.0  1.0000    8 0.5  0.0000    7 0.5  0.0000    6 0.0  0.0000    4 0.0  0.0000
    8         0.409119       6 0.0  1.0000    8 0.5  0.0000    7 0.5  0.0000    5 0.0  0.0000    4 0.0  0.0000
    9         0.452147       8 0.5  1.0000    7 0.5  0.0000    6 0.0  0.0000    5 0.0  0.0000    4 0.0  0.0000
   10         0.452147       8 0.5  1.0000    7 0.5  0.0000    6 0.0  0.0000    5 0.0  0.0000    4 0.0  0.0000
 -------------------------------------------------------------------------------
 ------------------------
 
 
      ****************************************************************************************************
      *                                                                                                  *
      *                                    Special properties section                                    *
      *                                                                                                  *
      ****************************************************************************************************
 
 
++ Dipole transition strengths (SO states):
   ----------------------------------------
        for osc. strength at least   1.00000000E-05
 
      From   To        Osc. strength     Einstein coefficients Ax, Ay, Az (sec-1)    Total A (sec-1)
     -----------------------------------------------------------------------------------------------
         1    3       1.10821188E-04  1.61488670E+05  1.02755166E-14  2.74945377E-17  1.61488670E+05
         1    6       2.07640105E-02  4.77941244E-15  6.67386485E-09  7.69475286E+07  7.69475286E+07
         1    7       6.34077638E-03  1.69284533E-16  2.43418118E+07  3.55761331E-08  2.43418118E+07
         1    8       9.57651645E-01  1.41279358E-13  5.15012203E+09  4.14846866E-07  5.15012203E+09
         2    3       7.89302855E-03  1.56579578E-17  2.22562730E+05  1.21670197E-11  2.22562730E+05
         2    7       3.51816628E-03  2.97838838E+06  2.63983282E-16  3.36985455E-17  2.97838838E+06
         2    8       8.06077496E-03  1.32026022E+07  5.21552400E-15  2.46215136E-16  1.32026022E+07
         3    6       5.75649542E-03  2.96681114E+06  1.16897877E-15  1.14448541E-16  2.96681114E+06
         4    9       8.69650235E-03  4.79595304E+06  1.65790572E-12  1.07092307E-18  4.79595304E+06
         5   10       8.69650235E-03  4.79595304E+06  1.65790572E-12  1.07098726E-18  4.79595304E+06
         6    7       2.94253793E-03  2.41765838E-19  3.45595062E+03  1.70357207E-15  3.45595062E+03
         7    8       9.34915014E-05  1.88314204E-18  5.33655725E-12  1.20965300E+04  1.20965300E+04
     -----------------------------------------------------------------------------------------------
--
 
++ Velocity transition strengths (SO states):
   ------------------------------------------
        for osc. strength at least   1.00000000E-05
 
      From   To        Osc. strength     Einstein coefficients Ax, Ay, Az (sec-1)    Total A (sec-1)
     -----------------------------------------------------------------------------------------------
         1    3       4.06956668E-03  5.93017382E+06  2.12766308E-13  2.09671922E-14  5.93017382E+06
         1    6       2.47239852E-02  4.65280487E-15  3.15529929E-09  9.16224520E+07  9.16224520E+07
         1    7       2.47088774E-03  2.46216932E-14  9.48557094E+06  3.96887746E-08  9.48557094E+06
         1    8       7.65596909E-01  2.22062013E-13  4.11727744E+09  4.03641276E-07  4.11727744E+09
         2    3       6.66230579E-04  9.07754756E-15  1.87859572E+04  2.40584773E-12  1.87859572E+04
         2    7       2.02733627E-03  1.71629033E+06  6.64007666E-15  3.56959915E-16  1.71629033E+06
         2    8       6.03524611E-03  9.88502395E+06  4.34226756E-15  5.35620644E-16  9.88502395E+06
         3    6       1.32478866E-02  6.82776147E+06  7.69074763E-15  9.27419574E-16  6.82776147E+06
         4    9       1.93172145E-02  1.06530706E+07  1.79398143E-12  6.17429693E-18  1.06530706E+07
         5   10       1.93172145E-02  1.06530706E+07  1.79398143E-12  6.17429693E-18  1.06530706E+07
         6    7       6.58104411E-03  9.34857179E-19  7.72930172E+03  4.62340057E-13  7.72930172E+03
         6    8       7.99862576E-03  1.32377341E-14  1.24151023E+06  3.33759049E-10  1.24151023E+06
     -----------------------------------------------------------------------------------------------
--
 
++ Length and velocity gauge comparison (SO states):
 
 --------------------------------------------------
 A comparison between the dipole oscillator strengths in 
 length and velocity gauge will be performed
 
     All dipole oscillator differences above the tolerance of   1.00000000E-01  will be printed 
 
 Due to basis set deficiency these oscillator may be problematic 
 
 The tolerance is defined as ABS(1-O_l/O_v) 
 O_l : dipole oscillator strength in length gauge
 O_p : dipole oscillator strength in velocity gauge
 --------------------------------------------------
 
  Problematic transitions have been found
 
      From   To       Difference (%) Osc. st. (len.) Osc. st. (vel.)
     ---------------------------------------------------------------
         1    3            97.276831  1.10821188E-04  4.06956668E-03
         1    6            16.016733  2.07640105E-02  2.47239852E-02
         1    7           156.619364  6.34077638E-03  2.47088774E-03
         1    8            25.085620  9.57651645E-01  7.65596909E-01
         2    3          1084.729252  7.89302855E-03  6.66230579E-04
         2    7            73.536396  3.51816628E-03  2.02733627E-03
         2    8            33.561661  8.06077496E-03  6.03524611E-03
         3    6            56.547821  5.75649542E-03  1.32478866E-02
         4    9            54.980557  8.69650235E-03  1.93172145E-02
         5   10            54.980557  8.69650235E-03  1.93172145E-02
         6    7            55.287674  2.94253793E-03  6.58104411E-03
         6    8      --------------- below threshold  7.99862576E-03
         7    8      ---------------  9.34915014E-05 below threshold
     ---------------------------------------------------------------
 
 Number of problematic transitions =                     13
 
--
 
 Electric-dipole - electric-octupole not included
++ I/O STATISTICS
 
  I. General I/O information
  - - - - - - - - - - - - - - - - - - - - - - - - - - - - - - - - - - - - - - - - - - -
  Unit  Name          Flsize      Write/Read            MBytes           Write/Read
                      (MBytes)       Calls              In/Out           Time, sec.
  - - - - - - - - - - - - - - - - - - - - - - - - - - - - - - - - - - - - - - - - - - -
   1  ANNI              0.00 .       0/       0 .      0.0/      0.0 .       0/       0
   2  RUNFILE           0.26 .     322/    5388 .      2.3/     39.1 .       0/       0
   3  ONEINT            1.46 .       0/    2144 .      0.0/   1944.4 .       0/       0
   4  JOB001            1.22 .       0/      69 .      0.0/      1.1 .       0/       0
   5  JOB002            1.22 .       0/      45 .      0.0/      1.1 .       0/       0
  - - - - - - - - - - - - - - - - - - - - - - - - - - - - - - - - - - - - - - - - - - -
   *  TOTAL             4.16 .     322/    7646 .      2.3/   1985.7 .       0/       0
  - - - - - - - - - - - - - - - - - - - - - - - - - - - - - - - - - - - - - - - - - - -
 
  II. I/O Access Patterns
  - - - - - - - - - - - - - - - - - - - -
  Unit  Name               % of random
                         Write/Read calls
  - - - - - - - - - - - - - - - - - - - -
   1  ANNI                 0.0/   0.0
   2  RUNFILE             28.6/  10.7
   3  ONEINT               0.0/  97.6
   4  JOB001               0.0/  68.1
   5  JOB002               0.0/  77.8
  - - - - - - - - - - - - - - - - - - - -
--
--- Stop Module: rassi at Wed Mar 20 20:30:03 2024 /rc=_RC_ALL_IS_WELL_ ---
--- Module rassi spent 3 seconds ---

.##################.
.# Happy landing! #.
.##################.

    Timing: Wall=13.30 User=11.80 System=1.41
