   This run of MOLCAS is using the pymolcas driver

                             OPE
                             OPE          NMOL  CASOP  ENMOLC A   SO
                 OPE        NMOLC        AS  OP EN  MO LC     AS  OP
                OPENM       OL CA        SO  PE NM  OL CA     SOP EN
                OP EN      MO   LC       AS  OP ENMOL  CASO   PENMOL
                OP  EN     MO   LC       AS  OP EN     MO     LC ASO
               OP   E  NMOL  C  AS       OP  EN MO     LC     AS  OP
               OP  E   NMO   LC AS        OPEN  MO     LCASOP EN   M
               O  PEN   MO  LCA  SO
            OPE   NMO   L   CAS    OP
        OPENMOL  CASOP     ENMOL   CASOPE
     OPENMOLCA   SOPENMOLCASOPEN   MOLCASOPE
    OPENMOLCAS   OP           EN   MOL    CAS
    OPENMOLCAS       OP  ENM        O     LCA
    OPENMOLCAS    OPEN  MOLCASO     P  E  NMO
    OPENMOLCAS     OP               E  N  MOL
    OPENMOLCA   SO           PENM   O  L  CAS    OPEN    MO    LCAS
    OPENMOLCA   SOP           ENM   O  L  CAS   OP  EN  MOLC  AS   O
    OPENMOLCA   SOPE           NM      O  LCA   S      OP  EN MO
    OPENMOLC                AS         O  PEN   M      OL  CA  SOPE
    OPENMO        LCASOPE  NMOL        C  ASO   P      ENMOLC     AS
    OPE     NMO      LCA  SO     P     E   NM   OL  CA SO  PE N   MO
          OPENMOLCA            SOPE   NMO        LCAS  O    P  ENMO
     OPENMOLCASOPENMOLCASOPENMOLCASOPENMOLCA
        OPENMOLCASOPENMOLCASOPENMOLCASOPE
            OPENMOLCASOPENMOLCASOPENM
               OPENMOLCASOPENMOLCA        version: v23.10
                   OPENMOLCASO
                       OPE                tag:

 OpenMolcas is free software; you can redistribute it and/or modify it
 under the terms of the GNU Lesser General Public License version 2.1.
 OpenMolcas is distributed in the hope that it will be useful, but it
 is provided "as is" and without any express or implied warranties.
 For more details see the full text of the license in the file
 LICENSE or in <http://www.gnu.org/licenses/>.

                 Copyright (C) The OpenMolcas Authors
           For the author list and the recommended citation,
                   consult the file CONTRIBUTORS.md

           *************************************************
           * pymolcas version py2.25                       *
           *   build 2b27fa14244bdc32cb1957e6230cd793      *
           *   (after the EMIL interpreter by V. Veryazov) *
           *************************************************

configuration info
------------------
Host name: manganese.itc.univie.ac.at (Linux)
C Compiler ID: Clang
C flags: -std=gnu99
Fortran Compiler ID: Intel
Fortran flags: -fpp -i8 -heap-arrays
Definitions: _MOLCAS_;_I8_;_LINUX_
Parallel: OFF (GA=OFF)


   -----------------------------------------------------------------------------
  |
  |           Project: MOLCAS
  |    Submitted from: /public/manganese/scratch/tmp/sascha.925337/WORK/grad_1_1
  |      Scratch area: /public/manganese/scratch/tmp/sascha.925337/WORK/grad_1_1
  |   Save outputs to: WORKDIR
  |            Molcas: /usr/license/openmolcas/v23.10
  |
  | Scratch area is NOT empty
  |
  |        MOLCASMEM = 10000
  |    MOLCAS_DRIVER = /usr/license/openmolcas/v23.10/pymolcas
  |    MOLCAS_NPROCS = 1
  |    MOLCAS_SOURCE = /usr/license/openmolcas/v23.10
  | MOLCAS_STRUCTURE = 0
  |
   -----------------------------------------------------------------------------

++ ---------   Input file   ---------

>>> COPY $master_path/MOLCAS.1.JobIph JOBOLD

&RASSCF
SPIN=1
NACTEL=8 0 0
INACTIVE=5
RAS2=6
ITERATIONS=200,100
CIROOT=4 4 1
THRS=1.0e-10 1.0e-06 1.0e-06
JOBIPH

&CASPT2
SHIFT=0.0
IMAGINARY= 0.000
IPEASHIFT= 0.00
MAXITER=120
MULTISTATE= 4 1 2 3 4
OUTPUT=BRIEF
PRWF=0.1
GRDT
rlxroot = 1

&MCLR
THRESHOLD=0.0001

&ALASKA

-- ----------------------------------

>>> COPY /public/manganese/scratch/tmp/sascha.925337/WORK/master/MOLCAS.1.JobIph JOBOLD

--- Start Module: rasscf at Wed Mar 20 15:34:09 2024 ---
 
()()()()()()()()()()()()()()()()()()()()()()()()()()()()()()()()()()()()()()()()()()()()()()()()()()

                                              &RASSCF

                                   only a single process is used
                       available to each process: 10 GB of memory, 1 thread?
                                            pid: 1175181
()()()()()()()()()()()()()()()()()()()()()()()()()()()()()()()()()()()()()()()()()()()()()()()()()()
 
 
      Header of the ONEINT file:
      --------------------------
      
      Integrals generated by Gateway/Seward, Wed Mar 20 15:33:59 2024
 
 
      OrdInt status: non-squared
 
 
      Cartesian coordinates in Angstrom:
      -----------------------------------------------------
      No.  Label        X            Y            Z        
      -----------------------------------------------------
       1   S1         0.00000000   0.00000000   0.00084100
       2   H2         0.00000000   0.97479900   1.18293400
       3   H3         0.00000000  -0.97479900   1.18293400
      -----------------------------------------------------
      Nuclear repulsion energy =   11.32343694
 
++    Wave function specifications:
      -----------------------------
 
      Number of closed shell electrons          10
      Number of electrons in active shells       8
      Max number of holes in RAS1 space          0
      Max nr of electrons in RAS3 space          0
      Number of inactive orbitals                5
      Number of active orbitals                  6
      Number of secondary orbitals              17
      Spin quantum number                      0.0
      State symmetry                             1
--
 
++    Orbital specifications:
      -----------------------
 
      Symmetry species                           1
                                                 a
      Frozen orbitals                            0
      Inactive orbitals                          5
      Active orbitals                            6
      RAS1 orbitals                              0
      RAS2 orbitals                              6
      RAS3 orbitals                              0
      Secondary orbitals                        17
      Deleted orbitals                           0
      Number of basis functions                 28
--
 
++    CI expansion specifications:
      ----------------------------
 
      Number of CSFs                           105
      Number of determinants                   120
      Number of root(s) required                 4
      Root chosen for geometry opt.              4
      CI roots used                              1     2     3     4
      weights                                0.250 0.250 0.250 0.250
      highest root included in the CI            4
      max. size of the explicit Hamiltonian    105
--
 
++    Optimization specifications:
      ----------------------------
 
      RASSCF algorithm: LK RI/DF
      Maximum number of macro iterations       200
      Maximum number of SX iterations          100
      Threshold for RASSCF energy            0.100E-09
      Threshold for max MO rotation          0.100E-05
      Threshold for max BLB element          0.100E-05
      Level shift parameter                  0.500E+00
      Make Quasi-Newton update
--
 
      The MO-coefficients are taken from the file:
      JOBOLD
      Title:(No title given)                                                        
 
      Total molecular charge    0.00
 
      ************************************************************************************************************************
      *                                                                                                                      *
      *                                            Wave function control section                                             *
      *                                                                                                                      *
      ************************************************************************************************************************
 
 
                                         RASSCF iterations: Energy and convergence statistics
                                         ----------------------------------------------------
 
      Iter CI   SX   CI       RASSCF       Energy    max ROT     max BLB   max BLB  Level Ln srch  Step   QN   Walltime
          iter iter root      energy       change     param      element    value   shift minimum  type update hh:mm:ss
 Nr of preliminary CI iterations:   1
        1   1    2    0  -398.50839001    0.00E+00   0.66E-06    3  17 1 -0.11E-06   0.00   0.00    SX    NO    0:00:00
        2   1    1    0  -398.50839001   -0.18E-11   0.00E+00    4  10 1 -0.12E-07   0.00   0.00    SX    NO    0:00:00
        3   1    1    0  -398.50839001    0.13E-11   0.00E+00    4  10 1 -0.12E-07   0.00   0.00    SX    NO    0:00:00
        4   1    1    0  -398.50839001   -0.21E-11   0.00E+00    4  10 1 -0.12E-07   0.00   0.00    SX    NO    0:00:00
      Convergence after  4 iterations
        5   1    1    0  -398.50839001    0.23E-12   0.00E+00    4  10 1 -0.12E-07   0.00   0.00    SX    NO    0:00:00
 
      ************************************************************************************************************************
                                                      Wave function printout:
                       occupation of active orbitals, and spin coupling of open shells (u,d: Spin up or down)
      ************************************************************************************************************************
 
      Note: transformation to natural orbitals
      has been made, which may change the order of the CSFs.
 
      printout of CI-coefficients larger than  0.05 for root  1
      energy=    -398.693733
      conf/sym  111111     Coeff  Weight
             1  222200  -0.96870 0.93838
            17  2u220d  -0.13604 0.01851
            31  220220   0.13389 0.01793
            52  202202   0.12141 0.01474
 
      printout of CI-coefficients larger than  0.05 for root  2
      energy=    -398.508671
      conf/sym  111111     Coeff  Weight
             2  222ud0   0.60388 0.36467
             4  222u0d  -0.76382 0.58342
             8  22ud20   0.12018 0.01444
            19  2u2udd   0.06213 0.00386
            21  2u2d02   0.11257 0.01267
            33  220u2d  -0.09348 0.00874
            53  202ud2  -0.05907 0.00349
 
      printout of CI-coefficients larger than  0.05 for root  3
      energy=    -398.476527
      conf/sym  111111     Coeff  Weight
             2  222ud0  -0.74141 0.54969
             4  222u0d  -0.60282 0.36339
             8  22ud20  -0.18595 0.03458
            19  2u2udd  -0.07143 0.00510
            21  2u2d02   0.12500 0.01563
            33  220u2d  -0.09777 0.00956
            53  202ud2   0.10931 0.01195
 
      printout of CI-coefficients larger than  0.05 for root  4
      energy=    -398.354629
      conf/sym  111111     Coeff  Weight
             5  2220ud   0.06409 0.00411
             7  22u2d0   0.05609 0.00315
             9  22u20d   0.93679 0.87757
            15  2u22d0  -0.19254 0.03707
            32  2202ud  -0.16686 0.02784
            40  2ud202  -0.13240 0.01753
            44  u2d2ud  -0.08910 0.00794
 
      Natural orbitals and occupation numbers for root  1
      sym 1:   1.997120   1.962308   1.957111   1.998601   0.052236   0.032623
 
      Natural orbitals and occupation numbers for root  2
      sym 1:   1.998868   1.985146   1.958273   1.000000   0.058606   0.999107
 
      Natural orbitals and occupation numbers for root  3
      sym 1:   1.998722   1.970581   1.936112   1.000000   0.991928   0.102656
 
      Natural orbitals and occupation numbers for root  4
      sym 1:   1.984986   1.943114   1.052034   1.986546   0.079947   0.953372
 
      ************************************************************************************************************************
      *                                                                                                                      *
      *                                                    Final results                                                     *
      *                                                                                                                      *
      ************************************************************************************************************************
 
 
++    Wave function specifications:
      -----------------------------
 
      Number of closed shell electrons          10
      Number of electrons in active shells       8
      Max number of holes in RAS1 space          0
      Max nr of electrons in RAS3 space          0
      Number of inactive orbitals                5
      Number of active orbitals                  6
      Number of secondary orbitals              17
      Spin quantum number                      0.0
      State symmetry                             1
--
 
++    Orbital specifications:
      -----------------------
 
      Symmetry species                           1
                                                 a
      Frozen orbitals                            0
      Inactive orbitals                          5
      Active orbitals                            6
      RAS1 orbitals                              0
      RAS2 orbitals                              6
      RAS3 orbitals                              0
      Secondary orbitals                        17
      Deleted orbitals                           0
      Number of basis functions                 28
--
 
++    CI expansion specifications:
      ----------------------------
 
      Number of CSFs                           105
      Number of determinants                   120
      Number of root(s) required                 4
      CI roots used                              1     2     3     4
      weights                                0.250 0.250 0.250 0.250
      highest root included in the CI            4
      Root passed to geometry opt.               4
--
 
++    Final optimization conditions:
      ------------------------------
 
      Average CI energy                            -398.50839001
      RASSCF energy for state  4                   -398.35462864
      Super-CI energy                                 0.00000000
      RASSCF energy change                            0.00000000
      Max change in MO coefficients               0.000E+00
      Max non-diagonal density matrix element     0.000E+00
      Maximum BLB matrix element                 -0.116E-07
      (orbital pair   4,  10 in symmetry   1)
      Norm of electronic gradient            0.843E-01
--
 
 
      Final state energy(ies):
      ------------------------
 
::    RASSCF root number  1 Total energy:   -398.69373311
::    RASSCF root number  2 Total energy:   -398.50867090
::    RASSCF root number  3 Total energy:   -398.47652739
::    RASSCF root number  4 Total energy:   -398.35462864
 
++    Molecular orbitals:
      -------------------
 
      Pseudonatural active orbitals and approximate occupation numbers
 
 
 
 
      Molecular orbitals for symmetry species 1: a  
 
 
      Orbital                 1         2         3         4         5         6         7         8         9        10
      Energy           -92.0114   -9.0113   -6.6909   -6.6899   -6.6895   -0.9540    0.0080   -0.0000   -0.0005    0.0024
      Occ. No.           2.0000    2.0000    2.0000    2.0000    2.0000    1.9906    1.9503    1.7207    1.4963    0.3132
 
     1 S1     1s         1.0000    0.0002    0.0000    0.0000    0.0000    0.0008    0.0012    0.0010   -0.0000    0.0029
     2 S1     2s         0.0001    1.0012   -0.0021   -0.0019   -0.0000    0.0070    0.0043    0.0027   -0.0000    0.0119
     3 S1     3s         0.0003    0.0007    0.0022    0.0023    0.0000    0.9496   -0.1378   -0.2347   -0.0000   -0.2362
     4 S1     *s        -0.0002   -0.0050   -0.0012   -0.0010   -0.0000   -0.0374   -0.0796   -0.0885    0.0000   -0.3664
     5 S1     2px       -0.0000    0.0000    0.0000   -0.0000    1.0000   -0.0000    0.0000    0.0000   -0.0027    0.0000
     6 S1     3px       -0.0000    0.0000    0.0000    0.0000    0.0001   -0.0000    0.0000   -0.0000    0.9753    0.0000
     7 S1     *px        0.0000   -0.0000    0.0000   -0.0000    0.0004    0.0000   -0.0000    0.0000    0.0232   -0.0000
     8 S1     2py       -0.0000    0.0000   -0.6707    0.7417    0.0000    0.0002   -0.0050    0.0047    0.0000    0.0081
     9 S1     3py       -0.0000    0.0006   -0.0012    0.0006   -0.0000   -0.0231    0.5736   -0.4773    0.0000    0.5492
    10 S1     *py        0.0000   -0.0001    0.0007    0.0001    0.0000    0.0017   -0.0639    0.0629   -0.0000    0.1586
    11 S1     2pz        0.0000    0.0035    0.7418    0.6706    0.0000   -0.0051   -0.0056   -0.0064   -0.0000   -0.0109
    12 S1     3pz        0.0000    0.0025    0.0015    0.0007   -0.0000    0.0692    0.5189    0.5594   -0.0000   -0.5309
    13 S1     *pz       -0.0001   -0.0031   -0.0008    0.0001   -0.0000   -0.0273   -0.0431   -0.0552    0.0000   -0.1904
    14 S1     *d2-       0.0000   -0.0000    0.0000    0.0000    0.0000    0.0000   -0.0000    0.0000   -0.0014   -0.0000
    15 S1     *d1-      -0.0000   -0.0000   -0.0003    0.0003   -0.0000   -0.0036    0.0457   -0.0412    0.0000   -0.0873
    16 S1     *d0       -0.0000    0.0001    0.0003    0.0002    0.0000    0.0068    0.0207    0.0226   -0.0000    0.0144
    17 S1     *d1+       0.0000   -0.0000   -0.0000    0.0000    0.0002   -0.0000    0.0000   -0.0000    0.0147   -0.0000
    18 S1     *d2+      -0.0000   -0.0001   -0.0001   -0.0001   -0.0000   -0.0066   -0.0101   -0.0138    0.0000   -0.0076
    19 H2     1s         0.0000    0.0000    0.0005    0.0016    0.0000    0.1729    0.5709   -0.0128    0.0000   -0.0991
    20 H2     *s         0.0001    0.0020   -0.0002   -0.0006    0.0000   -0.0866   -0.1219   -0.0139   -0.0000    0.1224
    21 H2     *px       -0.0000   -0.0000    0.0000   -0.0000   -0.0000    0.0000   -0.0000   -0.0000    0.0111   -0.0000
    22 H2     *py        0.0000    0.0004   -0.0000   -0.0001    0.0000   -0.0114   -0.0164   -0.0072   -0.0000    0.0094
    23 H2     *pz        0.0000    0.0004   -0.0001   -0.0001    0.0000   -0.0123   -0.0189    0.0069   -0.0000    0.0039
    24 H3     1s         0.0000   -0.0008    0.0013    0.0004    0.0000    0.2177   -0.0745    0.6235   -0.0000    0.8140
    25 H3     *s         0.0001    0.0021   -0.0003   -0.0002    0.0000   -0.0973   -0.0031   -0.1291    0.0000    0.4556
    26 H3     *px       -0.0000    0.0000   -0.0000    0.0000    0.0000    0.0000    0.0000    0.0000    0.0148    0.0000
    27 H3     *py       -0.0000   -0.0004    0.0000    0.0000    0.0000    0.0122    0.0085    0.0167   -0.0000   -0.0057
    28 H3     *pz        0.0000    0.0005   -0.0001   -0.0000    0.0000   -0.0142    0.0095   -0.0187    0.0000    0.0133
 
 
      Orbital                11
      Energy             0.0089
      Occ. No.           0.5289
 
     1 S1     1s         0.0041
     2 S1     2s         0.0207
     3 S1     3s        -0.2205
     4 S1     *s        -0.4270
     5 S1     2px       -0.0000
     6 S1     3px       -0.0000
     7 S1     *px        0.0000
     8 S1     2py       -0.0042
     9 S1     3py       -0.4808
    10 S1     *py       -0.2187
    11 S1     2pz       -0.0082
    12 S1     3pz       -0.4736
    13 S1     *pz       -0.2412
    14 S1     *d2-      -0.0000
    15 S1     *d1-       0.0760
    16 S1     *d0        0.0101
    17 S1     *d1+       0.0000
    18 S1     *d2+      -0.0205
    19 H2     1s         0.7287
    20 H2     *s         0.6207
    21 H2     *px       -0.0000
    22 H2     *py        0.0068
    23 H2     *pz        0.0157
    24 H3     1s        -0.0853
    25 H3     *s         0.1027
    26 H3     *px        0.0000
    27 H3     *py       -0.0072
    28 H3     *pz        0.0014
--
 
      Von Neumann Entropy (Root   1) =  0.29483
 

      Mulliken population analysis for root number:  1
      -----------------------------------------------
 
 
++    Molecular charges:
      ------------------
 
      Mulliken charges per centre and basis function type
      ---------------------------------------------------
 
                S1      H2      H3    
      1s       2.0000  1.0858  1.1335
      2s       2.0024  0.0000  0.0000
      2px      1.9999  0.0000  0.0000
      2pz      2.0000  0.0000  0.0000
      2py      2.0001  0.0000  0.0000
      3s       1.9432  0.0000  0.0000
      3px      1.9483  0.0000  0.0000
      3pz      1.3199  0.0000  0.0000
      3py      1.2007  0.0000  0.0000
      *s      -0.0659 -0.1528 -0.2231
      *px      0.0417  0.0034  0.0047
      *pz     -0.1544  0.0098  0.0109
      *py     -0.1728  0.0074  0.0081
      *d2+     0.0036  0.0000  0.0000
      *d1+     0.0006  0.0000  0.0000
      *d0      0.0073  0.0000  0.0000
      *d1-     0.0377  0.0000  0.0000
      *d2-     0.0000  0.0000  0.0000
      Total   16.1124  0.9535  0.9341
 
      N-E     -0.1124  0.0465  0.0659
 
      Total electronic charge=   18.000000
 
      Total            charge=   -0.000000
--
 
 

      Expectation values of various properties for root number:  1
      -----------------------------------------------------------
 
 
++    Molecular properties:
      ---------------------
 
      Charge (e):
                      =   -0.0000
      Dipole Moment (Debye):
      Origin of the operator (Ang)=    0.0000    0.0000    0.0000
                   X= -3.6719E-12               Y= -3.9736E-02               Z=  9.6181E-01           Total=  9.6263E-01
      Quadrupole Moment (Debye*Ang):
      Origin of the operator (Ang)=    0.0000    0.0000    0.0709
                  XX= -1.6701E+01              XY=  8.1350E-12              XZ=  2.7048E-13              YY= -1.3324E+01
                  YZ= -6.6389E-02              ZZ= -1.3053E+01
      In traceless form (Debye*Ang)
                  XX= -3.5125E+00              XY=  1.2203E-11              XZ=  4.0571E-13              YY=  1.5532E+00
                  YZ= -9.9584E-02              ZZ=  1.9593E+00
--
 
      Von Neumann Entropy (Root   2) =  1.19071
 

      Mulliken population analysis for root number:  2
      -----------------------------------------------
 
 
++    Molecular charges:
      ------------------
 
      Mulliken charges per centre and basis function type
      ---------------------------------------------------
 
                S1      H2      H3    
      1s       2.0000  1.1603  1.1793
      2s       2.0024  0.0000  0.0000
      2px      1.9999  0.0000  0.0000
      2pz      2.0000  0.0000  0.0000
      2py      2.0001  0.0000  0.0000
      3s       1.9537  0.0000  0.0000
      3px      0.9749  0.0000  0.0000
      3pz      1.4150  0.0000  0.0000
      3py      1.7292  0.0000  0.0000
      *s      -0.0512 -0.1044 -0.2171
      *px      0.0209  0.0017  0.0023
      *pz     -0.1270  0.0135  0.0132
      *py     -0.0649  0.0083  0.0086
      *d2+     0.0034  0.0000  0.0000
      *d1+     0.0003  0.0000  0.0000
      *d0      0.0067  0.0000  0.0000
      *d1-     0.0708  0.0000  0.0000
      *d2-     0.0000  0.0000  0.0000
      Total   15.9342  1.0794  0.9864
 
      N-E      0.0658 -0.0794  0.0136
 
      Total electronic charge=   18.000000
 
      Total            charge=   -0.000000
--
 
 

      Expectation values of various properties for root number:  2
      -----------------------------------------------------------
 
 
++    Molecular properties:
      ---------------------
 
      Charge (e):
                      =   -0.0000
      Dipole Moment (Debye):
      Origin of the operator (Ang)=    0.0000    0.0000    0.0000
                   X= -5.9960E-13               Y= -3.8994E-01               Z=  1.1559E-01           Total=  4.0671E-01
      Quadrupole Moment (Debye*Ang):
      Origin of the operator (Ang)=    0.0000    0.0000    0.0709
                  XX= -1.3958E+01              XY=  4.3512E-12              XZ= -4.9904E-13              YY= -1.6696E+01
                  YZ= -1.0735E+00              ZZ= -1.6221E+01
      In traceless form (Debye*Ang)
                  XX=  2.4998E+00              XY=  6.5268E-12              XZ= -7.4856E-13              YY= -1.6061E+00
                  YZ= -1.6103E+00              ZZ= -8.9371E-01
--
 
      Von Neumann Entropy (Root   3) =  1.28899
 

      Mulliken population analysis for root number:  3
      -----------------------------------------------
 
 
++    Molecular charges:
      ------------------
 
      Mulliken charges per centre and basis function type
      ---------------------------------------------------
 
                S1      H2      H3    
      1s       2.0000  1.0786  1.1734
      2s       2.0024  0.0000  0.0000
      2px      1.9999  0.0000  0.0000
      2pz      2.0000  0.0000  0.0000
      2py      2.0001  0.0000  0.0000
      3s       1.9816  0.0000  0.0000
      3px      0.9749  0.0000  0.0000
      3pz      1.7144  0.0000  0.0000
      3py      1.3807  0.0000  0.0000
      *s      -0.0728 -0.0381 -0.1081
      *px      0.0209  0.0017  0.0023
      *pz     -0.0754  0.0139  0.0154
      *py     -0.1342  0.0111  0.0113
      *d2+     0.0052  0.0000  0.0000
      *d1+     0.0003  0.0000  0.0000
      *d0      0.0085  0.0000  0.0000
      *d1-     0.0318  0.0000  0.0000
      *d2-     0.0000  0.0000  0.0000
      Total   15.8382  1.0673  1.0945
 
      N-E      0.1618 -0.0673 -0.0945
 
      Total electronic charge=   18.000000
 
      Total            charge=   -0.000000
--
 
 

      Expectation values of various properties for root number:  3
      -----------------------------------------------------------
 
 
++    Molecular properties:
      ---------------------
 
      Charge (e):
                      =   -0.0000
      Dipole Moment (Debye):
      Origin of the operator (Ang)=    0.0000    0.0000    0.0000
                   X=  9.1492E-15               Y=  1.4660E-01               Z= -1.0023E+00           Total=  1.0129E+00
      Quadrupole Moment (Debye*Ang):
      Origin of the operator (Ang)=    0.0000    0.0000    0.0709
                  XX= -1.4331E+01              XY=  5.0629E-12              XZ= -1.7473E-13              YY= -1.6686E+01
                  YZ=  5.3839E-01              ZZ= -1.8348E+01
      In traceless form (Debye*Ang)
                  XX=  3.1854E+00              XY=  7.5944E-12              XZ= -2.6209E-13              YY= -3.4605E-01
                  YZ=  8.0758E-01              ZZ= -2.8394E+00
--
 
      Von Neumann Entropy (Root   4) =  1.24362
 

      Mulliken population analysis for root number:  4
      -----------------------------------------------
 
 
++    Molecular charges:
      ------------------
 
      Mulliken charges per centre and basis function type
      ---------------------------------------------------
 
                S1      H2      H3    
      1s       2.0000  1.1873  0.8458
      2s       2.0024  0.0000  0.0000
      2px      1.9999  0.0000  0.0000
      2pz      2.0000  0.0000  0.0000
      2py      2.0001  0.0000  0.0000
      3s       1.9016  0.0000  0.0000
      3px      1.9366  0.0000  0.0000
      3pz      1.1443  0.0000  0.0000
      3py      1.1617  0.0000  0.0000
      *s      -0.0797  0.0191 -0.1165
      *px      0.0414  0.0034  0.0047
      *pz     -0.0701  0.0160  0.0086
      *py     -0.0812  0.0097  0.0075
      *d2+     0.0043  0.0000  0.0000
      *d1+     0.0005  0.0000  0.0000
      *d0      0.0062  0.0000  0.0000
      *d1-     0.0461  0.0000  0.0000
      *d2-     0.0000  0.0000  0.0000
      Total   16.0143  1.2355  0.7502
 
      N-E     -0.0143 -0.2355  0.2498
 
      Total electronic charge=   18.000000
 
      Total            charge=   -0.000000
--
 
 

      Expectation values of various properties for root number:  4
      -----------------------------------------------------------
 
 
++    Molecular properties:
      ---------------------
 
      Charge (e):
                      =   -0.0000
      Dipole Moment (Debye):
      Origin of the operator (Ang)=    0.0000    0.0000    0.0000
                   X= -5.1297E-12               Y= -1.8941E+00               Z= -2.2999E-01           Total=  1.9080E+00
      Quadrupole Moment (Debye*Ang):
      Origin of the operator (Ang)=    0.0000    0.0000    0.0709
                  XX= -1.7029E+01              XY=  7.4156E-12              XZ=  8.0669E-13              YY= -1.5530E+01
                  YZ= -5.4421E+00              ZZ= -1.5865E+01
      In traceless form (Debye*Ang)
                  XX= -1.3314E+00              XY=  1.1123E-11              XZ=  1.2100E-12              YY=  9.1628E-01
                  YZ= -8.1631E+00              ZZ=  4.1508E-01
--
 
 
      Input file to MOLDEN was generated!
 
 
      Input file to MOLDEN was generated!
 
 
      Input file to MOLDEN was generated!
 
 
      Input file to MOLDEN was generated!
 
 
      Input file to MOLDEN was generated!
 
      Average orbitals are written to the RASORB file
      Natural orbitals for root   1 are written to the RASORB.1 file
      Natural orbitals for root   2 are written to the RASORB.2 file
      Natural orbitals for root   3 are written to the RASORB.3 file
      Natural orbitals for root   4 are written to the RASORB.4 file
      Spin density orbitals for root   1 are written to the SPDORB.1 file
      Spin density orbitals for root   2 are written to the SPDORB.2 file
      Spin density orbitals for root   3 are written to the SPDORB.3 file
      Spin density orbitals for root   4 are written to the SPDORB.4 file
 
--- Stop Module: rasscf at Wed Mar 20 15:34:11 2024 /rc=_RC_ALL_IS_WELL_ ---
--- Module rasscf spent 1 second ---

*** symbolic link created: INPORB -> MOLCAS.RasOrb
--- Start Module: caspt2 at Wed Mar 20 15:34:11 2024 ---
 
()()()()()()()()()()()()()()()()()()()()()()()()()()()()()()()()()()()()()()()()()()()()()()()()()()

                                              &CASPT2

                                   only a single process is used
                       available to each process: 10 GB of memory, 1 thread?
                                            pid: 1175225
()()()()()()()()()()()()()()()()()()()()()()()()()()()()()()()()()()()()()()()()()()()()()()()()()()
 
 
++    Wave function specifications:
      -----------------------------
 
      Number of closed shell electrons           0
      Number of electrons in active shells       8
      Max number of holes in RAS1 space          0
      Max number of electrons in RAS3 space      0
      Number of inactive orbitals                0
      Number of active orbitals                  6
      Number of secondary orbitals              17
      Spin quantum number                      0.0
      State symmetry                             1
      Number of CSFs                           105
      Number of CASSCF root(s) available         4
      CASPT2 state passed to geometry opt.       1
      A file JOBMIX will be created
      This is a MULTI-STATE CASSCF reference
      Number of CI roots used                    4
      These are:                                 1   2   3   4
      Off-diagonal elements of Heff are computed
--
 
++    Orbital specifications:
      -----------------------
 
      Symmetry species                           1
                                                 a
      Frozen orbitals                            5
      Inactive orbitals                          0
      Active orbitals                            6
      Secondary orbitals                        17
      Deleted orbitals                           0
      Number of basis functions                 28
--
 
++    CASPT2 specifications:
      ----------------------
 
      Type of calculation                        MS-CASPT2
      Fock operator                              state-specific
      IPEA shift                                 0.00
      Real shift                                 0.00
      Imaginary shift                            0.00
      The input orbitals will be transformed to quasi-canonical
      Quantities for analytical gradients will be calculated
--
 
--------------------------------------------------------------------------------
 Estimated memory requirements:
  POLY3 :                   257654
  RHS:                      259460
  SIGMA :                   264688
  PRPCTL:                        0
 Available workspace:   1124990510
 
++ CASPT2 computation for group   1
 
********************************************************************************
 Multi-State initialization phase begins for group   1
--------------------------------------------------------------------------------
********************************************************************************
 Compute H0 matrices for state    1
--------------------------------------------------------------------------------
--------------------------------------------------------------------------------
 H0 matrices have been computed.
 
********************************************************************************
  CASPT2 EQUATION SOLUTION
--------------------------------------------------------------------------------
 
  Total nr of CASPT2 parameters:
   Before reduction:        8925
   After  reduction:        8466
 
 Variance of |WF0>:       0.3198061670
 
 The contributions to the second order correlation energy in atomic units.
-----------------------------------------------------------------------------------------------------------------------------
  IT.      VJTU        VJTI        ATVX        AIVX        VJAI        BVAT        BJAT        BJAI        TOTAL       RNORM  
-----------------------------------------------------------------------------------------------------------------------------
   1     0.000000    0.000000   -0.043557    0.000000    0.000000   -0.082067    0.000000    0.000000   -0.125624    0.000837
   2     0.000000    0.000000   -0.043643    0.000000    0.000000   -0.082065    0.000000    0.000000   -0.125708    0.000039
   3     0.000000    0.000000   -0.043645    0.000000    0.000000   -0.082066    0.000000    0.000000   -0.125710    0.000002
-----------------------------------------------------------------------------------------------------------------------------
 
  FINAL CASPT2 RESULT:
 
      Reference energy:        -398.6937331064
      E2 (Non-variational):      -0.1257103944
      E2 (Variational):          -0.1257103922
      Total energy:            -398.8194434985
      Residual norm:              0.0000000921
      Reference weight:           0.94997
 
      Contributions to the CASPT2 correlation energy
      Active & Virtual Only:         -0.1257103944
      One Inactive Excited:           0.0000000000
      Two Inactive Excited:           0.0000000000
 
 
++ Denominators, etc.
--------------------------------------------------------------------------------------------------------------
 Report on small energy denominators, large coefficients, and large energy contributions.
CASE  SYMM ACTIVE-MIX  NON-ACTIVE INDICES          DENOMINATOR     RHS VALUE       COEFFICIENT     CONTRIBUTION
ATVX     1  Mu1.0016  Se1.014                       1.72983010     -0.04642988      0.02616957     -0.00121505
ATVX     1  Mu1.0009  Se1.015                       1.64560276      0.05216052     -0.03077029     -0.00160499
ATVX     1  Mu1.0017  Se1.016                       1.80319712      0.06300292     -0.03460245     -0.00218006
ATVX     1  Mu1.0009  Se1.018                       1.73533784      0.04586550     -0.02625756     -0.00120432
ATVX     1  Mu1.0007  Se1.019                       1.73858273      0.06432001     -0.03671380     -0.00236143
BVATP    1  Mu1.0001  Se1.015 Se1.015               2.14032516      0.07416174     -0.03453490     -0.00256117
BVATP    1  Mu1.0001  Se1.018 Se1.018               2.31979534      0.07646180     -0.03295809     -0.00252003
BVATP    1  Mu1.0001  Se1.019 Se1.019               2.34441607      0.07736528     -0.03299598     -0.00255274
BVATM    1  Mu1.0001  Se1.015 Se1.014               2.21297963      0.05986509     -0.02630304     -0.00157463
BVATM    1  Mu1.0001  Se1.018 Se1.013               2.20089533     -0.07359204      0.03266991     -0.00240425
BVATM    1  Mu1.0002  Se1.019 Se1.013               2.22188874     -0.05738282      0.02537632     -0.00145616
BVATM    1  Mu1.0002  Se1.019 Se1.016               2.39707515     -0.06435775      0.02671768     -0.00171949
BVATM    1  Mu1.0002  Se1.020 Se1.019               2.45646676      0.06057322     -0.02503429     -0.00151641
--
--
 
++ CASPT2 computation for group   2
 
********************************************************************************
 Multi-State initialization phase begins for group   2
--------------------------------------------------------------------------------
********************************************************************************
 Compute H0 matrices for state    2
--------------------------------------------------------------------------------
--------------------------------------------------------------------------------
 H0 matrices have been computed.
 
********************************************************************************
  CASPT2 EQUATION SOLUTION
--------------------------------------------------------------------------------
 
  Total nr of CASPT2 parameters:
   Before reduction:        8925
   After  reduction:        7820
 
 Variance of |WF0>:       0.3201782014
 
 The contributions to the second order correlation energy in atomic units.
-----------------------------------------------------------------------------------------------------------------------------
  IT.      VJTU        VJTI        ATVX        AIVX        VJAI        BVAT        BJAT        BJAI        TOTAL       RNORM  
-----------------------------------------------------------------------------------------------------------------------------
   1     0.000000    0.000000   -0.056445    0.000000    0.000000   -0.079422    0.000000    0.000000   -0.135867    0.000921
   2     0.000000    0.000000   -0.056542    0.000000    0.000000   -0.079426    0.000000    0.000000   -0.135968    0.000053
   3     0.000000    0.000000   -0.056545    0.000000    0.000000   -0.079427    0.000000    0.000000   -0.135972    0.000003
-----------------------------------------------------------------------------------------------------------------------------
 
  FINAL CASPT2 RESULT:
 
      Reference energy:        -398.5086708972
      E2 (Non-variational):      -0.1359715550
      E2 (Variational):          -0.1359715484
      Total energy:            -398.6446424456
      Residual norm:              0.0000001574
      Reference weight:           0.93905
 
      Contributions to the CASPT2 correlation energy
      Active & Virtual Only:         -0.1359715550
      One Inactive Excited:           0.0000000000
      Two Inactive Excited:           0.0000000000
 
 
++ Denominators, etc.
--------------------------------------------------------------------------------------------------------------
 Report on small energy denominators, large coefficients, and large energy contributions.
CASE  SYMM ACTIVE-MIX  NON-ACTIVE INDICES          DENOMINATOR     RHS VALUE       COEFFICIENT     CONTRIBUTION
ATVX     1  Mu1.0001  Se1.012                       0.48172665     -0.01292444      0.02666123     -0.00034458
ATVX     1  Mu1.0025  Se1.013                       1.48444241      0.07630134     -0.05116990     -0.00390433
ATVX     1  Mu1.0031  Se1.016                       1.71060740     -0.05888323      0.03442774     -0.00202722
ATVX     1  Mu1.0001  Se1.017                       0.71008758     -0.03101660      0.04333357     -0.00134406
ATVX     1  Mu1.0049  Se1.018                       1.95765650      0.05834950     -0.02968997     -0.00173240
ATVX     1  Mu1.0051  Se1.019                       1.99225178      0.07581233     -0.03792678     -0.00287532
ATVX     1  Mu1.0007  Se1.020                       1.24426345     -0.03463522      0.02739255     -0.00094875
ATVX     1  Mu1.0025  Se1.020                       1.69003383      0.05399753     -0.03186619     -0.00172070
ATVX     1  Mu1.0008  Se1.021                       1.55053764     -0.07070801      0.04535596     -0.00320703
ATVX     1  Mu1.0010  Se1.021                       1.68152013     -0.04711052      0.02725169     -0.00128384
ATVX     1  Mu1.0007  Se1.022                       1.56037675     -0.05553078      0.03514207     -0.00195147
BVATP    1  Mu1.0009  Se1.016 Se1.016               2.49600447      0.06641883     -0.02653643     -0.00176252
BVATM    1  Mu1.0003  Se1.018 Se1.013               2.05483581      0.06236108     -0.02975905     -0.00185581
--
--
 
++ CASPT2 computation for group   3
 
********************************************************************************
 Multi-State initialization phase begins for group   3
--------------------------------------------------------------------------------
********************************************************************************
 Compute H0 matrices for state    3
--------------------------------------------------------------------------------
--------------------------------------------------------------------------------
 H0 matrices have been computed.
 
********************************************************************************
  CASPT2 EQUATION SOLUTION
--------------------------------------------------------------------------------
 
  Total nr of CASPT2 parameters:
   Before reduction:        8925
   After  reduction:        7820
 
 Variance of |WF0>:       0.3166395608
 
 The contributions to the second order correlation energy in atomic units.
-----------------------------------------------------------------------------------------------------------------------------
  IT.      VJTU        VJTI        ATVX        AIVX        VJAI        BVAT        BJAT        BJAI        TOTAL       RNORM  
-----------------------------------------------------------------------------------------------------------------------------
   1     0.000000    0.000000   -0.059921    0.000000    0.000000   -0.080350    0.000000    0.000000   -0.140272    0.001224
   2     0.000000    0.000000   -0.060052    0.000000    0.000000   -0.080377    0.000000    0.000000   -0.140430    0.000069
   3     0.000000    0.000000   -0.060055    0.000000    0.000000   -0.080379    0.000000    0.000000   -0.140434    0.000003
-----------------------------------------------------------------------------------------------------------------------------
 
  FINAL CASPT2 RESULT:
 
      Reference energy:        -398.4765273915
      E2 (Non-variational):      -0.1404341887
      E2 (Variational):          -0.1404341781
      Total energy:            -398.6169615695
      Residual norm:              0.0000002322
      Reference weight:           0.92952
 
      Contributions to the CASPT2 correlation energy
      Active & Virtual Only:         -0.1404341887
      One Inactive Excited:           0.0000000000
      Two Inactive Excited:           0.0000000000
 
 
++ Denominators, etc.
--------------------------------------------------------------------------------------------------------------
 Report on small energy denominators, large coefficients, and large energy contributions.
CASE  SYMM ACTIVE-MIX  NON-ACTIVE INDICES          DENOMINATOR     RHS VALUE       COEFFICIENT     CONTRIBUTION
ATVX     1  Mu1.0012  Se1.012                       1.05448395      0.02767276     -0.02583384     -0.00071489
ATVX     1  Mu1.0001  Se1.013                       0.49315475      0.04779537     -0.09572691     -0.00457530
ATVX     1  Mu1.0031  Se1.013                       1.47178966      0.06174827     -0.04173478     -0.00257705
ATVX     1  Mu1.0001  Se1.014                       0.55516533     -0.02165294      0.03763009     -0.00081480
ATVX     1  Mu1.0043  Se1.016                       1.78764748     -0.06349655      0.03541793     -0.00224892
ATVX     1  Mu1.0001  Se1.017                       0.65362510      0.01669409     -0.02501677     -0.00041763
ATVX     1  Mu1.0002  Se1.018                       0.93402707      0.02663598     -0.02713882     -0.00072287
ATVX     1  Mu1.0004  Se1.018                       0.95473590      0.02597042     -0.02653466     -0.00068912
ATVX     1  Mu1.0055  Se1.018                       1.96135181     -0.07067723      0.03590701     -0.00253781
ATVX     1  Mu1.0003  Se1.019                       0.94783536      0.02690084     -0.02769743     -0.00074508
ATVX     1  Mu1.0025  Se1.019                       1.56570645     -0.04171508      0.02661173     -0.00111011
ATVX     1  Mu1.0053  Se1.019                       1.94379766     -0.07487992      0.03835154     -0.00287176
ATVX     1  Mu1.0031  Se1.020                       1.67640784      0.06793515     -0.04054088     -0.00275415
ATVX     1  Mu1.0008  Se1.022                       1.55195255      0.05008707     -0.03171994     -0.00158876
BVATP    1  Mu1.0007  Se1.016 Se1.016               2.40099505     -0.06201604      0.02577747     -0.00159862
BVATM    1  Mu1.0007  Se1.016 Se1.012               2.21531341     -0.05949764      0.02625639     -0.00156219
BVATM    1  Mu1.0004  Se1.018 Se1.013               2.06406056      0.06177383     -0.02921001     -0.00180441
--
--
 
++ CASPT2 computation for group   4
 
********************************************************************************
 Multi-State initialization phase begins for group   4
--------------------------------------------------------------------------------
********************************************************************************
 Compute H0 matrices for state    4
--------------------------------------------------------------------------------
--------------------------------------------------------------------------------
 H0 matrices have been computed.
 
********************************************************************************
  CASPT2 EQUATION SOLUTION
--------------------------------------------------------------------------------
 
  Total nr of CASPT2 parameters:
   Before reduction:        8925
   After  reduction:        8466
 
 Variance of |WF0>:       0.3116850312
 
 The contributions to the second order correlation energy in atomic units.
-----------------------------------------------------------------------------------------------------------------------------
  IT.      VJTU        VJTI        ATVX        AIVX        VJAI        BVAT        BJAT        BJAI        TOTAL       RNORM  
-----------------------------------------------------------------------------------------------------------------------------
   1     0.000000    0.000000   -0.052160    0.000000    0.000000   -0.085149    0.000000    0.000000   -0.137310    0.000965
   2     0.000000    0.000000   -0.052263    0.000000    0.000000   -0.085171    0.000000    0.000000   -0.137434    0.000058
   3     0.000000    0.000000   -0.052265    0.000000    0.000000   -0.085172    0.000000    0.000000   -0.137437    0.000004
-----------------------------------------------------------------------------------------------------------------------------
 
  FINAL CASPT2 RESULT:
 
      Reference energy:        -398.3546286403
      E2 (Non-variational):      -0.1374367250
      E2 (Variational):          -0.1374367154
      Total energy:            -398.4920653557
      Residual norm:              0.0000002522
      Reference weight:           0.93566
 
      Contributions to the CASPT2 correlation energy
      Active & Virtual Only:         -0.1374367250
      One Inactive Excited:           0.0000000000
      Two Inactive Excited:           0.0000000000
 
 
++ Denominators, etc.
--------------------------------------------------------------------------------------------------------------
 Report on small energy denominators, large coefficients, and large energy contributions.
CASE  SYMM ACTIVE-MIX  NON-ACTIVE INDICES          DENOMINATOR     RHS VALUE       COEFFICIENT     CONTRIBUTION
ATVX     1  Mu1.0004  Se1.012                       0.82223721      0.02861233     -0.03505815     -0.00100310
ATVX     1  Mu1.0034  Se1.012                       1.37754929     -0.05257850      0.03808515     -0.00200246
ATVX     1  Mu1.0004  Se1.013                       0.92517409      0.02396208     -0.02584442     -0.00061929
ATVX     1  Mu1.0055  Se1.016                       1.72154695     -0.05595361      0.03245396     -0.00181592
ATVX     1  Mu1.0035  Se1.018                       1.66065245     -0.06543759      0.03931467     -0.00257266
ATVX     1  Mu1.0078  Se1.018                       2.15133862     -0.05566954      0.02555698     -0.00142275
ATVX     1  Mu1.0001  Se1.020                       0.72082652      0.01995047     -0.02672798     -0.00053324
ATVX     1  Mu1.0013  Se1.021                       1.48964884      0.04102374     -0.02752161     -0.00112904
ATVX     1  Mu1.0013  Se1.022                       1.55368092      0.05863213     -0.03725788     -0.00218451
BVATP    1  Mu1.0005  Se1.015 Se1.015               2.13858334      0.07015728     -0.03280363     -0.00230141
BVATP    1  Mu1.0005  Se1.018 Se1.018               2.27931487      0.06891849     -0.03022181     -0.00208284
BVATP    1  Mu1.0005  Se1.019 Se1.019               2.34904668      0.07356035     -0.03131063     -0.00230322
BVATP    1  Mu1.0012  Se1.019 Se1.019               2.53782757     -0.06411174      0.02526179     -0.00161958
BVATM    1  Mu1.0006  Se1.019 Se1.013               2.24913545      0.07777525     -0.03435616     -0.00267206
--
--
 
  Total CASPT2 energies:
::    CASPT2 Root  1     Total energy:   -398.81944350
::    CASPT2 Root  2     Total energy:   -398.64464245
::    CASPT2 Root  3     Total energy:   -398.61696157
::    CASPT2 Root  4     Total energy:   -398.49206536
 
++ Multi-State CASPT2 section:
********************************************************************************
  MULTI-STATE CASPT2 SECTION
--------------------------------------------------------------------------------
 
  Output diagonal energies have been shifted. Add   -398.000000000000     
 
  Effective Hamiltonian matrix (Symmetric):
 
                1               2               3               4
   1        -0.81944350
   2         0.00000000     -0.64464245
   3        -0.00000000      0.00295432     -0.61696157
   4         0.00195014     -0.00000000      0.00000000     -0.49206536
 
       Total MS-CASPT2 energies:
::    MS-CASPT2 Root  1     Total energy:   -398.81945511
::    MS-CASPT2 Root  2     Total energy:   -398.64495424
::    MS-CASPT2 Root  3     Total energy:   -398.61664977
::    MS-CASPT2 Root  4     Total energy:   -398.49205374
 
       Eigenvectors:
            0.99998226      0.00000000     -0.00000000      0.00595651
           -0.00000000      0.99447685      0.10495611     -0.00000000
            0.00000000     -0.10495611      0.99447685      0.00000000
           -0.00595651      0.00000000     -0.00000000      0.99998226
 
--
 
********************************************************************************
 SECOND RUN to compute analytical gradients/NAC quantities
--------------------------------------------------------------------------------
 
++ CASPT2 computation for group   1
 
********************************************************************************
 Multi-State initialization phase begins for group   1
--------------------------------------------------------------------------------
********************************************************************************
 Compute H0 matrices for state    1
--------------------------------------------------------------------------------
--------------------------------------------------------------------------------
 H0 matrices have been computed.
 
********************************************************************************
  CASPT2 EQUATION SOLUTION (SECOND RUN)
--------------------------------------------------------------------------------
 
  Total nr of CASPT2 parameters:
   Before reduction:        8925
   After  reduction:        8466
 
 Variance of |WF0>:       0.3198061670
 
 The contributions to the second order correlation energy in atomic units.
-----------------------------------------------------------------------------------------------------------------------------
  IT.      VJTU        VJTI        ATVX        AIVX        VJAI        BVAT        BJAT        BJAI        TOTAL       RNORM  
-----------------------------------------------------------------------------------------------------------------------------
   1     0.000000    0.000000   -0.043557    0.000000    0.000000   -0.082067    0.000000    0.000000   -0.125624    0.000837
   2     0.000000    0.000000   -0.043643    0.000000    0.000000   -0.082065    0.000000    0.000000   -0.125708    0.000039
   3     0.000000    0.000000   -0.043645    0.000000    0.000000   -0.082066    0.000000    0.000000   -0.125710    0.000002
 
********************************************************************************
  CASPT2 PROPERTY SECTION
--------------------------------------------------------------------------------
 
 Variance of |WF0>:       0.0000061843
 
 Solving the Lambda equation for analytic gradients
-----------------------------------------------------------------------------------------------------------------------------
  IT.      VJTU        VJTI        ATVX        AIVX        VJAI        BVAT        BJAT        BJAI        TOTAL       RNORM  
-----------------------------------------------------------------------------------------------------------------------------
   1     0.000000    0.000000   -0.000001    0.000000    0.000000   -0.000001    0.000000    0.000000   -0.000002    0.000003
-----------------------------------------------------------------------------------------------------------------------------
 
 * TypeIndex information is IGNORED *
 
      Input file to MOLDEN was generated!
 
 
 
      Mulliken population Analysis:
      -----------------------------
 
++    Molecular charges:
      ------------------
 
      Mulliken charges per centre and basis function type
      ---------------------------------------------------
 
                S1      H2      H3    
      1s       2.0000  1.1119  1.1176
      2s       2.0024  0.0000  0.0000
      2px      1.9999  0.0000  0.0000
      2pz      2.0001  0.0000  0.0000
      2py      2.0001  0.0000  0.0000
      3s       1.8860  0.0000  0.0000
      3px      1.8790  0.0000  0.0000
      3pz      1.2929  0.0000  0.0000
      3py      1.1833  0.0000  0.0000
      *s      -0.0110 -0.1993 -0.2219
      *px      0.0862  0.0062  0.0064
      *pz     -0.1280  0.0119  0.0120
      *py     -0.1537  0.0092  0.0092
      *d2+     0.0141  0.0000  0.0000
      *d1+     0.0113  0.0000  0.0000
      *d0      0.0166  0.0000  0.0000
      *d1-     0.0469  0.0000  0.0000
      *d2-     0.0108  0.0000  0.0000
      Total   16.1368  0.9399  0.9233
 
      N-E     -0.1368  0.0601  0.0767
 
      Total electronic charge=   18.000000
 
      Total            charge=   -0.000000
--
 
 
      Expectation values of various properties:
      -----------------------------------------
 
++    Molecular properties:
      ---------------------
 
      Charge (e):
                      =   -0.0000
      Dipole Moment (Debye):
      Origin of the operator (Ang)=    0.0000    0.0000    0.0000
                   X= -7.9027E-13               Y= -6.3245E-02               Z=  9.9940E-01           Total=  1.0014E+00
      Quadrupole Moment (Debye*Ang):
      Origin of the operator (Ang)=    0.0000    0.0000    0.0709
                  XX= -1.6809E+01              XY=  3.0032E-12              XZ=  8.3680E-15              YY= -1.3290E+01
                  YZ= -6.2233E-02              ZZ= -1.2978E+01
      In traceless form (Debye*Ang)
                  XX= -3.6747E+00              XY=  4.5049E-12              XZ=  1.2552E-14              YY=  1.6033E+00
                  YZ= -9.3350E-02              ZZ=  2.0715E+00
--
 
--
 
++ CASPT2 computation for group   2
 
********************************************************************************
 Multi-State initialization phase begins for group   2
--------------------------------------------------------------------------------
********************************************************************************
 Compute H0 matrices for state    2
--------------------------------------------------------------------------------
--------------------------------------------------------------------------------
 H0 matrices have been computed.
 
********************************************************************************
  CASPT2 EQUATION SOLUTION (SECOND RUN)
--------------------------------------------------------------------------------
 
  Total nr of CASPT2 parameters:
   Before reduction:        8925
   After  reduction:        7820
 
 Variance of |WF0>:       0.3201782014
 
 The contributions to the second order correlation energy in atomic units.
-----------------------------------------------------------------------------------------------------------------------------
  IT.      VJTU        VJTI        ATVX        AIVX        VJAI        BVAT        BJAT        BJAI        TOTAL       RNORM  
-----------------------------------------------------------------------------------------------------------------------------
   1     0.000000    0.000000   -0.056445    0.000000    0.000000   -0.079422    0.000000    0.000000   -0.135867    0.000921
   2     0.000000    0.000000   -0.056542    0.000000    0.000000   -0.079426    0.000000    0.000000   -0.135968    0.000053
   3     0.000000    0.000000   -0.056545    0.000000    0.000000   -0.079427    0.000000    0.000000   -0.135972    0.000003
 
********************************************************************************
  CASPT2 PROPERTY SECTION
--------------------------------------------------------------------------------
 
 Variance of |WF0>:       0.0000000000
-----------------------------------------------------------------------------------------------------------------------------
 
 * TypeIndex information is IGNORED *
 
      Input file to MOLDEN was generated!
 
 
 
      Mulliken population Analysis:
      -----------------------------
 
++    Molecular charges:
      ------------------
 
      Mulliken charges per centre and basis function type
      ---------------------------------------------------
 
                S1      H2      H3    
      1s       2.0000  1.1603  1.1793
      2s       2.0024  0.0000  0.0000
      2px      1.9999  0.0000  0.0000
      2pz      2.0000  0.0000  0.0000
      2py      2.0001  0.0000  0.0000
      3s       1.9537  0.0000  0.0000
      3px      0.9749  0.0000  0.0000
      3pz      1.4150  0.0000  0.0000
      3py      1.7292  0.0000  0.0000
      *s      -0.0512 -0.1044 -0.2171
      *px      0.0209  0.0017  0.0023
      *pz     -0.1270  0.0135  0.0132
      *py     -0.0649  0.0083  0.0086
      *d2+     0.0034  0.0000  0.0000
      *d1+     0.0003  0.0000  0.0000
      *d0      0.0067  0.0000  0.0000
      *d1-     0.0708  0.0000  0.0000
      *d2-     0.0000  0.0000  0.0000
      Total   15.9342  1.0794  0.9864
 
      N-E      0.0658 -0.0794  0.0136
 
      Total electronic charge=   18.000000
 
      Total            charge=   -0.000000
--
 
 
      Expectation values of various properties:
      -----------------------------------------
 
++    Molecular properties:
      ---------------------
 
      Charge (e):
                      =   -0.0000
      Dipole Moment (Debye):
      Origin of the operator (Ang)=    0.0000    0.0000    0.0000
                   X= -1.1147E-12               Y= -3.8994E-01               Z=  1.1559E-01           Total=  4.0671E-01
      Quadrupole Moment (Debye*Ang):
      Origin of the operator (Ang)=    0.0000    0.0000    0.0709
                  XX= -1.3958E+01              XY=  3.7148E-12              XZ= -2.0798E-13              YY= -1.6696E+01
                  YZ= -1.0735E+00              ZZ= -1.6221E+01
      In traceless form (Debye*Ang)
                  XX=  2.4998E+00              XY=  5.5722E-12              XZ= -3.1198E-13              YY= -1.6061E+00
                  YZ= -1.6103E+00              ZZ= -8.9371E-01
--
 
--
 
++ CASPT2 computation for group   3
 
********************************************************************************
 Multi-State initialization phase begins for group   3
--------------------------------------------------------------------------------
********************************************************************************
 Compute H0 matrices for state    3
--------------------------------------------------------------------------------
--------------------------------------------------------------------------------
 H0 matrices have been computed.
 
********************************************************************************
  CASPT2 EQUATION SOLUTION (SECOND RUN)
--------------------------------------------------------------------------------
 
  Total nr of CASPT2 parameters:
   Before reduction:        8925
   After  reduction:        7820
 
 Variance of |WF0>:       0.3166395608
 
 The contributions to the second order correlation energy in atomic units.
-----------------------------------------------------------------------------------------------------------------------------
  IT.      VJTU        VJTI        ATVX        AIVX        VJAI        BVAT        BJAT        BJAI        TOTAL       RNORM  
-----------------------------------------------------------------------------------------------------------------------------
   1     0.000000    0.000000   -0.059921    0.000000    0.000000   -0.080350    0.000000    0.000000   -0.140272    0.001224
   2     0.000000    0.000000   -0.060052    0.000000    0.000000   -0.080377    0.000000    0.000000   -0.140430    0.000069
   3     0.000000    0.000000   -0.060055    0.000000    0.000000   -0.080379    0.000000    0.000000   -0.140434    0.000003
 
********************************************************************************
  CASPT2 PROPERTY SECTION
--------------------------------------------------------------------------------
 
 Variance of |WF0>:       0.0000000000
-----------------------------------------------------------------------------------------------------------------------------
 
 * TypeIndex information is IGNORED *
 
      Input file to MOLDEN was generated!
 
 
 
      Mulliken population Analysis:
      -----------------------------
 
++    Molecular charges:
      ------------------
 
      Mulliken charges per centre and basis function type
      ---------------------------------------------------
 
                S1      H2      H3    
      1s       2.0000  1.0786  1.1734
      2s       2.0024  0.0000  0.0000
      2px      1.9999  0.0000  0.0000
      2pz      2.0000  0.0000  0.0000
      2py      2.0001  0.0000  0.0000
      3s       1.9816  0.0000  0.0000
      3px      0.9749  0.0000  0.0000
      3pz      1.7144  0.0000  0.0000
      3py      1.3807  0.0000  0.0000
      *s      -0.0728 -0.0381 -0.1081
      *px      0.0209  0.0017  0.0023
      *pz     -0.0754  0.0139  0.0154
      *py     -0.1342  0.0111  0.0113
      *d2+     0.0052  0.0000  0.0000
      *d1+     0.0003  0.0000  0.0000
      *d0      0.0085  0.0000  0.0000
      *d1-     0.0318  0.0000  0.0000
      *d2-     0.0000  0.0000  0.0000
      Total   15.8382  1.0673  1.0945
 
      N-E      0.1618 -0.0673 -0.0945
 
      Total electronic charge=   18.000000
 
      Total            charge=   -0.000000
--
 
 
      Expectation values of various properties:
      -----------------------------------------
 
++    Molecular properties:
      ---------------------
 
      Charge (e):
                      =   -0.0000
      Dipole Moment (Debye):
      Origin of the operator (Ang)=    0.0000    0.0000    0.0000
                   X= -2.3953E-13               Y=  1.4660E-01               Z= -1.0023E+00           Total=  1.0129E+00
      Quadrupole Moment (Debye*Ang):
      Origin of the operator (Ang)=    0.0000    0.0000    0.0709
                  XX= -1.4331E+01              XY=  4.5459E-12              XZ=  7.7858E-14              YY= -1.6686E+01
                  YZ=  5.3839E-01              ZZ= -1.8348E+01
      In traceless form (Debye*Ang)
                  XX=  3.1854E+00              XY=  6.8188E-12              XZ=  1.1679E-13              YY= -3.4605E-01
                  YZ=  8.0758E-01              ZZ= -2.8394E+00
--
 
--
 
++ CASPT2 computation for group   4
 
********************************************************************************
 Multi-State initialization phase begins for group   4
--------------------------------------------------------------------------------
********************************************************************************
 Compute H0 matrices for state    4
--------------------------------------------------------------------------------
--------------------------------------------------------------------------------
 H0 matrices have been computed.
 
********************************************************************************
  CASPT2 EQUATION SOLUTION (SECOND RUN)
--------------------------------------------------------------------------------
 
  Total nr of CASPT2 parameters:
   Before reduction:        8925
   After  reduction:        8466
 
 Variance of |WF0>:       0.3116850312
 
 The contributions to the second order correlation energy in atomic units.
-----------------------------------------------------------------------------------------------------------------------------
  IT.      VJTU        VJTI        ATVX        AIVX        VJAI        BVAT        BJAT        BJAI        TOTAL       RNORM  
-----------------------------------------------------------------------------------------------------------------------------
   1     0.000000    0.000000   -0.052160    0.000000    0.000000   -0.085149    0.000000    0.000000   -0.137310    0.000965
   2     0.000000    0.000000   -0.052263    0.000000    0.000000   -0.085171    0.000000    0.000000   -0.137434    0.000058
   3     0.000000    0.000000   -0.052265    0.000000    0.000000   -0.085172    0.000000    0.000000   -0.137437    0.000004
 
********************************************************************************
  CASPT2 PROPERTY SECTION
--------------------------------------------------------------------------------
 
 Variance of |WF0>:       0.0000088264
 
 Solving the Lambda equation for analytic gradients
-----------------------------------------------------------------------------------------------------------------------------
  IT.      VJTU        VJTI        ATVX        AIVX        VJAI        BVAT        BJAT        BJAI        TOTAL       RNORM  
-----------------------------------------------------------------------------------------------------------------------------
   1     0.000000    0.000000   -0.000002    0.000000    0.000000   -0.000002    0.000000    0.000000   -0.000005    0.000006
-----------------------------------------------------------------------------------------------------------------------------
 
 * TypeIndex information is IGNORED *
 
      Input file to MOLDEN was generated!
 
 
 
      Mulliken population Analysis:
      -----------------------------
 
++    Molecular charges:
      ------------------
 
      Mulliken charges per centre and basis function type
      ---------------------------------------------------
 
                S1      H2      H3    
      1s       2.0000  1.1874  0.8458
      2s       2.0024  0.0000  0.0000
      2px      1.9999  0.0000  0.0000
      2pz      2.0000  0.0000  0.0000
      2py      2.0001  0.0000  0.0000
      3s       1.9016  0.0000  0.0000
      3px      1.9366  0.0000  0.0000
      3pz      1.1443  0.0000  0.0000
      3py      1.1617  0.0000  0.0000
      *s      -0.0797  0.0191 -0.1165
      *px      0.0414  0.0034  0.0047
      *pz     -0.0699  0.0160  0.0086
      *py     -0.0814  0.0097  0.0075
      *d2+     0.0043  0.0000  0.0000
      *d1+     0.0006  0.0000  0.0000
      *d0      0.0062  0.0000  0.0000
      *d1-     0.0461  0.0000  0.0000
      *d2-     0.0000  0.0000  0.0000
      Total   16.0143  1.2355  0.7502
 
      N-E     -0.0143 -0.2355  0.2498
 
      Total electronic charge=   18.000000
 
      Total            charge=   -0.000000
--
 
 
      Expectation values of various properties:
      -----------------------------------------
 
++    Molecular properties:
      ---------------------
 
      Charge (e):
                      =   -0.0000
      Dipole Moment (Debye):
      Origin of the operator (Ang)=    0.0000    0.0000    0.0000
                   X= -5.1667E-12               Y= -1.8955E+00               Z= -2.2955E-01           Total=  1.9093E+00
      Quadrupole Moment (Debye*Ang):
      Origin of the operator (Ang)=    0.0000    0.0000    0.0709
                  XX= -1.7029E+01              XY=  7.3977E-12              XZ=  8.6099E-13              YY= -1.5531E+01
                  YZ= -5.4421E+00              ZZ= -1.5864E+01
      In traceless form (Debye*Ang)
                  XX= -1.3311E+00              XY=  1.1097E-11              XZ=  1.2915E-12              YY=  9.1534E-01
                  YZ= -8.1631E+00              ZZ=  4.1579E-01
--
 
--
 
  THE ORIGINAL CI ARRAYS ARE NOW MIXED AS LINEAR
  COMBINATIONS, GIVEN BY THE EIGENVECTORS.
  A NEW JOBIPH FILE NAMED 'JOBMIX' IS PREPARED.
********************************************************************************
 
++ Mixed CI coefficients:
  The CI coefficients for the MIXED state nr.   1
--------------------------------------------------------------------------------
 CI COEFFICIENTS LARGER THAN  0.10D+00
  Occupation of active orbitals, and spin coupling
  of open shells. (u,d: Spin up or down).
  SGUGA info is (Midvert:IsyUp:UpperWalk/LowerWalk)
        Conf  SGUGA info        Occupation    Coefficient         Weight
           1  ( 1:1:   1/   1)   222200         -0.968750       0.938476
          17  ( 2:1:   3/   2)   2u220d         -0.136035       0.018506
          31  ( 3:1:   1/   1)   220220          0.133608       0.017851
          52  ( 3:1:   4/   4)   202202          0.121163       0.014680
 
  The CI coefficients for the MIXED state nr.   2
--------------------------------------------------------------------------------
 CI COEFFICIENTS LARGER THAN  0.10D+00
  Occupation of active orbitals, and spin coupling
  of open shells. (u,d: Spin up or down).
  SGUGA info is (Midvert:IsyUp:UpperWalk/LowerWalk)
        Conf  SGUGA info        Occupation    Coefficient         Weight
           2  ( 1:1:   2/   1)   222ud0          0.678357       0.460168
           4  ( 1:1:   4/   1)   222u0d         -0.696332       0.484878
           8  ( 2:1:   2/   1)   22ud20          0.139032       0.019330
 
  The CI coefficients for the MIXED state nr.   3
--------------------------------------------------------------------------------
 CI COEFFICIENTS LARGER THAN  0.10D+00
  Occupation of active orbitals, and spin coupling
  of open shells. (u,d: Spin up or down).
  SGUGA info is (Midvert:IsyUp:UpperWalk/LowerWalk)
        Conf  SGUGA info        Occupation    Coefficient         Weight
           2  ( 1:1:   2/   1)   222ud0         -0.673933       0.454186
           4  ( 1:1:   4/   1)   222u0d         -0.679655       0.461931
           8  ( 2:1:   2/   1)   22ud20         -0.172308       0.029690
          21  ( 2:1:   7/   2)   2u2d02          0.136126       0.018530
          33  ( 3:1:   3/   1)   220u2d         -0.107045       0.011459
          53  ( 3:1:   5/   4)   202ud2          0.102504       0.010507
 
  The CI coefficients for the MIXED state nr.   4
--------------------------------------------------------------------------------
 CI COEFFICIENTS LARGER THAN  0.10D+00
  Occupation of active orbitals, and spin coupling
  of open shells. (u,d: Spin up or down).
  SGUGA info is (Midvert:IsyUp:UpperWalk/LowerWalk)
        Conf  SGUGA info        Occupation    Coefficient         Weight
           9  ( 2:1:   3/   1)   22u20d          0.936764       0.877526
          15  ( 2:1:   1/   2)   2u22d0         -0.192408       0.037021
          32  ( 3:1:   2/   1)   2202ud         -0.166998       0.027888
          40  ( 3:1:   4/   2)   2ud202         -0.132452       0.017543
 
--
 
 ###############################################################################
 ###############################################################################
 ###                                                                         ###
 ###                                                                         ###
 ###    WARNING: RunFile label nBas                                          ###
 ###    was used      230 times                                              ###
 ###                                                                         ###
 ###                                                                         ###
 ###############################################################################
 ###############################################################################
--- Stop Module: caspt2 at Wed Mar 20 15:34:14 2024 /rc=_RC_ALL_IS_WELL_ ---
--- Module caspt2 spent 2 seconds ---

*** symbolic link created: INPORB -> MOLCAS.RasOrb
--- Start Module: mclr at Wed Mar 20 15:34:14 2024 ---
 
()()()()()()()()()()()()()()()()()()()()()()()()()()()()()()()()()()()()()()()()()()()()()()()()()()

                                               &MCLR

                                   only a single process is used
                       available to each process: 10 GB of memory, 1 thread?
                                            pid: 1175498
()()()()()()()()()()()()()()()()()()()()()()()()()()()()()()()()()()()()()()()()()()()()()()()()()()
 
 No .RLXPT2  or MCKINT  , I hope that is OK
 Seward mode is assumed, reading perturbation from ONEINT  
 OrdInt status: non-squared
 
++   Wave function specifications:
     -----------------------------
 
     Number of closed shell electrons             10
     Number of electrons in active shells          8
     Max number of holes in RAS1 space             0
     Max number of electrons in RAS3 space         0
     Number of inactive orbitals                   5
     Number of active orbitals                     6
     Number of secondary orbitals                 17
     Spin quantum number                         0.0
     State symmetry                                1
     Number of CI roots                            4
     States considered                             1     2     3     4
     Weights                                   0.250 0.250 0.250 0.250
 
     Symmetry species                              1
     Skipped sym. species                          0
     Frozen orbitals                               0
     Inactive orbitals                             5
     Active orbitals                               6
     RAS1 orbitals                                 0
     RAS2 orbitals                                 6
     RAS3 orbitals                                 0
     Deleted orbitals                              0
     Number of basis functions                    28
     Number of orbitals                           28
     Number of configurations                    105
     Number of combinations                      120
     Natural orbitals are used in the last CI
     RASSCF state energy =           -398.6937331064
     Size of explicit Hamiltonian in PCG:        100
--
 
     Convergence threshold=               1.0000E-04
     Max number of iterations in PCG:            200
     Using the Cho-MO Algorithm
     Calculating Lagrangian multipliers for CASPT2
     Lagrangian multipliers are calculated for state no.   1
 
 
  Reordering of the Cholesky vectors to full storage. 
  Elapsed time for the reordering section:   1.999999999999999E-002
  CPU time for the reordering section:   1.999999999999999E-002
 
 TIMING INFORMATION:   CPU(s)   %CPU   Elapsed(s)
 Transformation          0.00    0.0         0.01
 Generation              0.02    2.0         0.02
 TOTAL                   0.05    5.0         0.06
 
        Iteration       Delta           Res(kappa)       Res(CI)          DeltaK
            DeltaC
 Warning  perturbation number                      1  might diverge
            1      1.194076657E-01  2.942886668E-02  1.278062714E-02  2.592896910E-04  2.023143182E-04
            2      5.908526415E-02  8.209707617E-03  7.794387888E-03  2.016213364E-05  2.082486192E-04
            3      1.140863244E-02  8.286084033E-03  4.306266079E-03  1.830823371E-05  2.579505268E-05
            4      1.082557564E-03  2.620650598E-03  1.314761314E-03  2.468256887E-06  1.716674700E-06
            5      1.307393900E-04  5.533215712E-04  6.088540879E-04  9.267729596E-08  4.127326895E-07
            6      3.563291041E-05  4.782248595E-04  1.990923769E-04  7.406490606E-08  6.368415897E-08
            7      1.305999624E-05  1.881829474E-04  1.403994540E-04  1.096667962E-08  3.952041926E-08
            8      2.035641607E-05  1.875184115E-04  1.238238489E-04  1.025763883E-08  6.843582875E-08
            9      1.642196951E-05  2.207205755E-04  1.348164011E-04  1.096319618E-08  5.252055856E-08
           10      1.394571162E-05  2.019071284E-04  1.568731175E-04  1.349279940E-08  4.041828207E-08
           11      9.599611752E-06  2.589322714E-04  1.178836660E-04  1.481238449E-08  2.229762219E-08
           12      3.351734068E-06  1.426545476E-04  7.902628549E-05  4.791568652E-09  8.165504703E-09
      Perturbation no:    1 converged in   12 steps.
 
 
++    Molecular properties:
      ---------------------
 
      Charge (e):
                      =   -0.0000
      Dipole Moment (Debye):
      Origin of the operator (Ang)=    0.0000    0.0000    0.0000
                   X=  2.3536E-11               Y=  6.1338E-03               Z=  1.2104E+00           Total=  1.2104E+00
      Quadrupole Moment (Debye*Ang):
      Origin of the operator (Ang)=    0.0000    0.0000    0.0709
                  XX= -1.6736E+01              XY=  3.8995E-10              XZ= -3.2338E-11              YY= -1.3027E+01
                  YZ= -2.6343E-04              ZZ= -1.2633E+01
      In traceless form (Debye*Ang)
                  XX= -3.9065E+00              XY=  5.8492E-10              XZ= -4.8506E-11              YY=  1.6581E+00
                  YZ= -3.9514E-04              ZZ=  2.2484E+00
--
 
 
      The response parameters are written to the file RESP.
 ###############################################################################
 ###############################################################################
 ###                                                                         ###
 ###                                                                         ###
 ###    WARNING: RunFile label nBas                                          ###
 ###    was used       61 times                                              ###
 ###                                                                         ###
 ###                                                                         ###
 ###############################################################################
 ###############################################################################
--- Stop Module: mclr at Wed Mar 20 15:34:14 2024 /rc=_RC_ALL_IS_WELL_ ---

*** symbolic link created: INPORB -> MOLCAS.RasOrb
--- Start Module: alaska at Wed Mar 20 15:34:14 2024 ---
 
()()()()()()()()()()()()()()()()()()()()()()()()()()()()()()()()()()()()()()()()()()()()()()()()()()

                                              &ALASKA

                                   only a single process is used
                       available to each process: 10 GB of memory, 1 thread?
                                            pid: 1175585
()()()()()()()()()()()()()()()()()()()()()()()()()()()()()()()()()()()()()()()()()()()()()()()()()()
 
 
                     Threshold for contributions to the gradient: 0.100E-06
 
 
                    ********************************************
                    * Symmetry Adapted Cartesian Displacements *
                    ********************************************
 
 
           Irreducible representation : a  
           Basis function(s) of irrep: x, y, xy, Rz, z, xz, Ry, yz, Rx, I                                              
 
 Basis Label        Type   Center Phase
   1   S1           x         1     1
   2   S1           y         1     1
   3   S1           z         1     1
   4   H2           x         2     1
   5   H2           y         2     1
   6   H2           z         2     1
   7   H3           x         3     1
   8   H3           y         3     1
   9   H3           z         3     1
 
                     No automatic utilization of translational and rotational invariance of the energy is employed.
 
 RI-ERI gradients!
 
 Wavefunction type: State average CASPT2
 
 A total of 13025. entities were prescreened and 13025. were kept.
 A total of 260214. entities were prescreened and 247973. were kept.
 
 **************************************************
 *                                                *
 *              Molecular gradients               *
 *                                                *
 **************************************************
 
  Irreducible representation: a  
 ------------------------------------------------------------------------------------------
                              X                       Y                       Z
 ------------------------------------------------------------------------------------------
  S1               -1.11627801805905E-11    2.44401158954398E-04   -9.47264260156073E-02
  H2               -1.34818427285443E-11    2.60014347792472E-02    4.72155693871952E-02
  H3                2.46446229091352E-11   -2.62458359382001E-02    4.75108566284179E-02
 ------------------------------------------------------------------------------------------
 
--- Stop Module: alaska at Wed Mar 20 15:34:15 2024 /rc=_RC_ALL_IS_WELL_ ---
--- Module alaska spent 1 second ---

.##################.
.# Happy landing! #.
.##################.

    Timing: Wall=6.19 User=5.26 System=0.77
