   This run of MOLCAS is using the pymolcas driver

                             OPE
                             OPE          NMOL  CASOP  ENMOLC A   SO
                 OPE        NMOLC        AS  OP EN  MO LC     AS  OP
                OPENM       OL CA        SO  PE NM  OL CA     SOP EN
                OP EN      MO   LC       AS  OP ENMOL  CASO   PENMOL
                OP  EN     MO   LC       AS  OP EN     MO     LC ASO
               OP   E  NMOL  C  AS       OP  EN MO     LC     AS  OP
               OP  E   NMO   LC AS        OPEN  MO     LCASOP EN   M
               O  PEN   MO  LCA  SO
            OPE   NMO   L   CAS    OP
        OPENMOL  CASOP     ENMOL   CASOPE
     OPENMOLCA   SOPENMOLCASOPEN   MOLCASOPE
    OPENMOLCAS   OP           EN   MOL    CAS
    OPENMOLCAS       OP  ENM        O     LCA
    OPENMOLCAS    OPEN  MOLCASO     P  E  NMO
    OPENMOLCAS     OP               E  N  MOL
    OPENMOLCA   SO           PENM   O  L  CAS    OPEN    MO    LCAS
    OPENMOLCA   SOP           ENM   O  L  CAS   OP  EN  MOLC  AS   O
    OPENMOLCA   SOPE           NM      O  LCA   S      OP  EN MO
    OPENMOLC                AS         O  PEN   M      OL  CA  SOPE
    OPENMO        LCASOPE  NMOL        C  ASO   P      ENMOLC     AS
    OPE     NMO      LCA  SO     P     E   NM   OL  CA SO  PE N   MO
          OPENMOLCA            SOPE   NMO        LCAS  O    P  ENMO
     OPENMOLCASOPENMOLCASOPENMOLCASOPENMOLCA
        OPENMOLCASOPENMOLCASOPENMOLCASOPE
            OPENMOLCASOPENMOLCASOPENM
               OPENMOLCASOPENMOLCA        version: v23.10
                   OPENMOLCASO
                       OPE                tag:

 OpenMolcas is free software; you can redistribute it and/or modify it
 under the terms of the GNU Lesser General Public License version 2.1.
 OpenMolcas is distributed in the hope that it will be useful, but it
 is provided "as is" and without any express or implied warranties.
 For more details see the full text of the license in the file
 LICENSE or in <http://www.gnu.org/licenses/>.

                 Copyright (C) The OpenMolcas Authors
           For the author list and the recommended citation,
                   consult the file CONTRIBUTORS.md

           *************************************************
           * pymolcas version py2.25                       *
           *   build 2b27fa14244bdc32cb1957e6230cd793      *
           *   (after the EMIL interpreter by V. Veryazov) *
           *************************************************

configuration info
------------------
Host name: manganese.itc.univie.ac.at (Linux)
C Compiler ID: Clang
C flags: -std=gnu99
Fortran Compiler ID: Intel
Fortran flags: -fpp -i8 -heap-arrays
Definitions: _MOLCAS_;_I8_;_LINUX_
Parallel: OFF (GA=OFF)


   -----------------------------------------------------------------------------
  |
  |           Project: MOLCAS
  |    Submitted from: /public/manganese/scratch/tmp/sascha.925337/WORK/grad_1_1
  |      Scratch area: /public/manganese/scratch/tmp/sascha.925337/WORK/grad_1_1
  |   Save outputs to: WORKDIR
  |            Molcas: /usr/license/openmolcas/v23.10
  |
  | Scratch area is NOT empty
  |
  |        MOLCASMEM = 10000
  |    MOLCAS_DRIVER = /usr/license/openmolcas/v23.10/pymolcas
  |    MOLCAS_NPROCS = 1
  |    MOLCAS_SOURCE = /usr/license/openmolcas/v23.10
  | MOLCAS_STRUCTURE = 0
  |
   -----------------------------------------------------------------------------

++ ---------   Input file   ---------

>>> COPY $master_path/MOLCAS.1.JobIph JOBOLD

&RASSCF
SPIN=1
NACTEL=8 0 0
INACTIVE=5
RAS2=6
ITERATIONS=200,100
CIROOT=4 4 1
ORBLISTING=NOTHING
PRWF=0.1
CMSInter
THRS=1.0e-10 1.0e-06 1.0e-06
JOBIPH
RLXROOT=1
CMSI

&MCPDFT
KSDFT=t:pbe
GRAD
MSPDFT
WJOB

&ALASKA
root=1

-- ----------------------------------

>>> COPY /public/manganese/scratch/tmp/sascha.925337/WORK/master/MOLCAS.1.JobIph JOBOLD

--- Start Module: rasscf at Wed Mar 20 14:36:42 2024 ---
 
()()()()()()()()()()()()()()()()()()()()()()()()()()()()()()()()()()()()()()()()()()()()()()()()()()

                                              &RASSCF

                                   only a single process is used
                       available to each process: 10 GB of memory, 1 thread?
                                            pid: 1142854
()()()()()()()()()()()()()()()()()()()()()()()()()()()()()()()()()()()()()()()()()()()()()()()()()()
 
 
      Header of the ONEINT file:
      --------------------------
      
      Integrals generated by Gateway/Seward, Wed Mar 20 14:36:29 2024
 
 
      OrdInt status: non-squared
 
 
      Cartesian coordinates in Angstrom:
      -----------------------------------------------------
      No.  Label        X            Y            Z        
      -----------------------------------------------------
       1   S1         0.00000000   0.00000000   0.00084100
       2   H2         0.00000000   0.97479900   1.18293400
       3   H3         0.00000000  -0.97479900   1.18293400
      -----------------------------------------------------
      Nuclear repulsion energy =   11.32343694
 
++    Wave function specifications:
      -----------------------------
 
      Number of closed shell electrons          10
      Number of electrons in active shells       8
      Max number of holes in RAS1 space          0
      Max nr of electrons in RAS3 space          0
      Number of inactive orbitals                5
      Number of active orbitals                  6
      Number of secondary orbitals              17
      Spin quantum number                      0.0
      State symmetry                             1
--
 
++    Orbital specifications:
      -----------------------
 
      Symmetry species                           1
                                                 a
      Frozen orbitals                            0
      Inactive orbitals                          5
      Active orbitals                            6
      RAS1 orbitals                              0
      RAS2 orbitals                              6
      RAS3 orbitals                              0
      Secondary orbitals                        17
      Deleted orbitals                           0
      Number of basis functions                 28
--
 
++    CI expansion specifications:
      ----------------------------
 
      Number of CSFs                           105
      Number of determinants                   120
      Number of root(s) required                 4
      Root chosen for geometry opt.              1
      CI roots used                              1     2     3     4
      weights                                0.250 0.250 0.250 0.250
      highest root included in the CI            4
      max. size of the explicit Hamiltonian    105
--
 
++    Optimization specifications:
      ----------------------------
 
      RASSCF algorithm: LK RI/DF
      Maximum number of macro iterations       200
      Maximum number of SX iterations          100
      Threshold for RASSCF energy            0.100E-09
      Threshold for max MO rotation          0.100E-05
      Threshold for max BLB element          0.100E-05
      Level shift parameter                  0.500E+00
      Make Quasi-Newton update
--
 
      The MO-coefficients are taken from the file:
      JOBOLD
      Title:(No title given)                                                        
 
      Total molecular charge    0.00
 
      ************************************************************************************************************************
      *                                                                                                                      *
      *                                            Wave function control section                                             *
      *                                                                                                                      *
      ************************************************************************************************************************
 
 
                                         RASSCF iterations: Energy and convergence statistics
                                         ----------------------------------------------------
 
      Iter CI   SX   CI       RASSCF       Energy    max ROT     max BLB   max BLB  Level Ln srch  Step   QN   Walltime
          iter iter root      energy       change     param      element    value   shift minimum  type update hh:mm:ss
 Nr of preliminary CI iterations:   1
        1   1    2    0  -398.50839001    0.00E+00   0.66E-06    3  17 1 -0.11E-06   0.00   0.00    SX    NO    0:00:00
        2   1    1    0  -398.50839001   -0.18E-11   0.00E+00    4  10 1 -0.12E-07   0.00   0.00    SX    NO    0:00:00
        3   1    1    0  -398.50839001    0.13E-11   0.00E+00    4  10 1 -0.12E-07   0.00   0.00    SX    NO    0:00:00
        4   1    1    0  -398.50839001   -0.21E-11   0.00E+00    4  10 1 -0.12E-07   0.00   0.00    SX    NO    0:00:00
      Convergence after  4 iterations
        5   1    1    0  -398.50839001    0.23E-12   0.00E+00    4  10 1 -0.12E-07   0.00   0.00    SX    NO    0:00:00
 
 
    CMS INTERMEDIATE-STATE OPTIMIZATION
     START MATRX           XMS INTERMEDIATE STATES
     OPT ALGO                               NEWTON
     Q_a-a THRESHOLD                      1.00E-08
     GRAD  THRESHOLD                      1.00E-10
     MAX CYCLES                                100
     MIN CYCLES                                  5
 =======================================================================
      Cycle       Q_a-a        Difference  # Pos.     Largest    Step
                                           Hessian    Gradient   Scaled
 -----------------------------------------------------------------------
         0     53.01225779     0.00E+000      0     0.0000E+000   1.0
         1     53.01909540     6.84E-003      2     3.3769E-002   1.0
         2     53.02255506     3.46E-003      1     2.5062E-002   1.0
         3     53.02321579     6.61E-004      1     1.2534E-002   1.0
         4     53.02321838     2.60E-006      1     6.5504E-004   1.0
         5     53.02321956     1.18E-006      1     1.8896E-004   1.0
         6     53.02322429     4.72E-006      1     3.7786E-004   1.0
         7     53.02324318     1.89E-005      1     7.5539E-004   1.0
         8     53.02331891     7.57E-005      1     1.5081E-003   1.0
         9     53.02362446     3.06E-004      1     2.9942E-003   1.0
        10     53.02488249     1.26E-003      1     5.8045E-003   1.0
        11     53.02554105     6.59E-004      1     9.7055E-003   1.0
        12     53.02813209     2.59E-003      0     1.1934E-002   1.0
        13     53.02862836     4.96E-004      0     7.7132E-003   1.0
        14     53.02863825     9.89E-006      0     5.9183E-004   1.0
        15     53.02863826     1.17E-008      0     2.3769E-005   1.0
        16     53.02863826    -2.84E-014      0     2.6735E-008   1.0
        17     53.02863826     4.26E-014      0     5.3966E-014   1.0
    CONVERGENCE REACHED
 =======================================================================
 
 =======================================================================
 
           Do_Rotate.txt is found in scratch directory.
           Following properties are for CMS intermediate states.
 
 =======================================================================
 
      ************************************************************************************************************************
                                                      Wave function printout:
                       occupation of active orbitals, and spin coupling of open shells (u,d: Spin up or down)
      ************************************************************************************************************************
 
      Note: transformation to natural orbitals
      has been made, which may change the order of the CSFs.
 
      printout of CI-coefficients larger than  0.10 for root  1
      energy=    -398.565769
      conf/sym  111111     Coeff  Weight
             1  222200  -0.63033 0.39731
             4  222u0d  -0.68352 0.46720
             9  22u20d  -0.26709 0.07134
            21  2u2d02   0.11877 0.01411
 
      printout of CI-coefficients larger than  0.10 for root  2
      energy=    -398.492516
      conf/sym  111111     Coeff  Weight
             2  222ud0  -0.95151 0.90537
             4  222u0d   0.11135 0.01240
             8  22ud20  -0.21658 0.04691
            53  202ud2   0.11915 0.01420
 
      printout of CI-coefficients larger than  0.10 for root  3
      energy=    -398.565769
      conf/sym  111111     Coeff  Weight
             1  222200  -0.63033 0.39731
             4  222u0d   0.68352 0.46720
             9  22u20d  -0.26709 0.07134
            21  2u2d02  -0.11877 0.01411
 
      printout of CI-coefficients larger than  0.10 for root  4
      energy=    -398.409506
      conf/sym  111111     Coeff  Weight
             1  222200  -0.37932 0.14388
             9  22u20d   0.85726 0.73489
            15  2u22d0  -0.16765 0.02811
            32  2202ud  -0.16240 0.02637
            40  2ud202  -0.12504 0.01563
 
      Natural orbitals and occupation numbers for root  1
      sym 1:   1.996900   1.991435   1.959866   1.742493   0.046226   0.263080
 
      Natural orbitals and occupation numbers for root  2
      sym 1:   1.998650   1.965160   1.997476   1.000000   1.001571   0.037142
 
      Natural orbitals and occupation numbers for root  3
      sym 1:   1.996900   1.991435   1.959866   1.742493   0.046226   0.263080
 
      Natural orbitals and occupation numbers for root  4
      sym 1:   1.989909   1.947807   1.460587   1.988849   0.073948   0.538900
 
      ************************************************************************************************************************
      *                                                                                                                      *
      *                                                    Final results                                                     *
      *                                                                                                                      *
      ************************************************************************************************************************
 
 
++    Wave function specifications:
      -----------------------------
 
      Number of closed shell electrons          10
      Number of electrons in active shells       8
      Max number of holes in RAS1 space          0
      Max nr of electrons in RAS3 space          0
      Number of inactive orbitals                5
      Number of active orbitals                  6
      Number of secondary orbitals              17
      Spin quantum number                      0.0
      State symmetry                             1
--
 
++    Orbital specifications:
      -----------------------
 
      Symmetry species                           1
                                                 a
      Frozen orbitals                            0
      Inactive orbitals                          5
      Active orbitals                            6
      RAS1 orbitals                              0
      RAS2 orbitals                              6
      RAS3 orbitals                              0
      Secondary orbitals                        17
      Deleted orbitals                           0
      Number of basis functions                 28
--
 
++    CI expansion specifications:
      ----------------------------
 
      Number of CSFs                           105
      Number of determinants                   120
      Number of root(s) required                 4
      CI roots used                              1     2     3     4
      weights                                0.250 0.250 0.250 0.250
      highest root included in the CI            4
      Root passed to geometry opt.               1
--
 
++    Final optimization conditions:
      ------------------------------
 
      Average CI energy                            -398.50839001
      RASSCF energy for state  1                   -398.56576874
      Super-CI energy                                 0.00000000
      RASSCF energy change                            0.00000000
      Max change in MO coefficients               0.000E+00
      Max non-diagonal density matrix element     0.000E+00
      Maximum BLB matrix element                 -0.116E-07
      (orbital pair   4,  10 in symmetry   1)
      Norm of electronic gradient            0.856E-01
--
 
 
      Final state energy(ies):
      ------------------------
 
::    RASSCF root number  1 Total energy:   -398.56576874
::    RASSCF root number  2 Total energy:   -398.49251629
::    RASSCF root number  3 Total energy:   -398.56576874
::    RASSCF root number  4 Total energy:   -398.40950627
      Von Neumann Entropy (Root   1) =  0.72087
 

      Mulliken population analysis for root number:  1
      -----------------------------------------------
 
 
++    Molecular charges:
      ------------------
 
      Mulliken charges per centre
      ---------------------------
 
                S1      H2      H3    
      Total   15.9836  1.1167  0.8997
 
      N-E      0.0164 -0.1167  0.1003
 
      Total electronic charge=   18.000000
 
      Total            charge=   -0.000000
--
 
 

      Expectation values of various properties for root number:  1
      -----------------------------------------------------------
 
 
++    Molecular properties:
      ---------------------
 
      Charge (e):
                      =   -0.0000
      Dipole Moment (Debye):
      Origin of the operator (Ang)=    0.0000    0.0000    0.0000
                   X=  3.0646E-01               Y= -8.4281E-01               Z=  2.7172E-01           Total=  9.3706E-01
      Quadrupole Moment (Debye*Ang):
      Origin of the operator (Ang)=    0.0000    0.0000    0.0709
                  XX= -1.5448E+01              XY=  7.2195E-01              XZ= -3.3605E-02              YY= -1.5031E+01
                  YZ= -2.5999E+00              ZZ= -1.5774E+01
      In traceless form (Debye*Ang)
                  XX= -4.5957E-02              XY=  1.0829E+00              XZ= -5.0408E-02              YY=  5.8023E-01
                  YZ= -3.8999E+00              ZZ= -5.3428E-01
--
 
      Von Neumann Entropy (Root   2) =  1.13415
 

      Mulliken population analysis for root number:  2
      -----------------------------------------------
 
 
++    Molecular charges:
      ------------------
 
      Mulliken charges per centre
      ---------------------------
 
                S1      H2      H3    
      Total   15.9015  0.9208  1.1777
 
      N-E      0.0985  0.0792 -0.1777
 
      Total electronic charge=   18.000000
 
      Total            charge=   -0.000000
--
 
 

      Expectation values of various properties for root number:  2
      -----------------------------------------------------------
 
 
++    Molecular properties:
      ---------------------
 
      Charge (e):
                      =   -0.0000
      Dipole Moment (Debye):
      Origin of the operator (Ang)=    0.0000    0.0000    0.0000
                   X=  2.2813E-12               Y=  1.2801E+00               Z= -2.3230E-01           Total=  1.3010E+00
      Quadrupole Moment (Debye*Ang):
      Origin of the operator (Ang)=    0.0000    0.0000    0.0709
                  XX= -1.4037E+01              XY=  2.2727E-12              XZ= -1.1391E-12              YY= -1.6500E+01
                  YZ=  3.4671E+00              ZZ= -1.6792E+01
      In traceless form (Debye*Ang)
                  XX=  2.6094E+00              XY=  3.4090E-12              XZ= -1.7086E-12              YY= -1.0851E+00
                  YZ=  5.2006E+00              ZZ= -1.5243E+00
--
 
      Von Neumann Entropy (Root   3) =  0.72087
 

      Mulliken population analysis for root number:  3
      -----------------------------------------------
 
 
++    Molecular charges:
      ------------------
 
      Mulliken charges per centre
      ---------------------------
 
                S1      H2      H3    
      Total   15.9836  1.1167  0.8997
 
      N-E      0.0164 -0.1167  0.1003
 
      Total electronic charge=   18.000000
 
      Total            charge=   -0.000000
--
 
 

      Expectation values of various properties for root number:  3
      -----------------------------------------------------------
 
 
++    Molecular properties:
      ---------------------
 
      Charge (e):
                      =   -0.0000
      Dipole Moment (Debye):
      Origin of the operator (Ang)=    0.0000    0.0000    0.0000
                   X= -3.0646E-01               Y= -8.4281E-01               Z=  2.7172E-01           Total=  9.3706E-01
      Quadrupole Moment (Debye*Ang):
      Origin of the operator (Ang)=    0.0000    0.0000    0.0709
                  XX= -1.5448E+01              XY= -7.2195E-01              XZ=  3.3605E-02              YY= -1.5031E+01
                  YZ= -2.5999E+00              ZZ= -1.5774E+01
      In traceless form (Debye*Ang)
                  XX= -4.5957E-02              XY= -1.0829E+00              XZ=  5.0408E-02              YY=  5.8023E-01
                  YZ= -3.8999E+00              ZZ= -5.3428E-01
--
 
      Von Neumann Entropy (Root   4) =  1.06926
 

      Mulliken population analysis for root number:  4
      -----------------------------------------------
 
 
++    Molecular charges:
      ------------------
 
      Mulliken charges per centre
      ---------------------------
 
                S1      H2      H3    
      Total   16.0305  1.1814  0.7881
 
      N-E     -0.0305 -0.1814  0.2119
 
      Total electronic charge=   18.000000
 
      Total            charge=   -0.000000
--
 
 

      Expectation values of various properties for root number:  4
      -----------------------------------------------------------
 
 
++    Molecular properties:
      ---------------------
 
      Charge (e):
                      =   -0.0000
      Dipole Moment (Debye):
      Origin of the operator (Ang)=    0.0000    0.0000    0.0000
                   X= -4.8438E-12               Y= -1.7717E+00               Z= -4.6602E-01           Total=  1.8319E+00
      Quadrupole Moment (Debye*Ang):
      Origin of the operator (Ang)=    0.0000    0.0000    0.0709
                  XX= -1.7086E+01              XY=  7.8055E-12              XZ=  1.9995E-13              YY= -1.5674E+01
                  YZ= -4.3109E+00              ZZ= -1.5146E+01
      In traceless form (Debye*Ang)
                  XX= -1.6761E+00              XY=  1.1708E-11              XZ=  2.9993E-13              YY=  4.4198E-01
                  YZ= -6.4663E+00              ZZ=  1.2341E+00
--
 
 
      Input file to MOLDEN was generated!
 
 
      Input file to MOLDEN was generated!
 
 
      Input file to MOLDEN was generated!
 
 
      Input file to MOLDEN was generated!
 
 
      Input file to MOLDEN was generated!
 
      Average orbitals are written to the RASORB file
      Natural orbitals for root   1 are written to the RASORB.1 file
      Natural orbitals for root   2 are written to the RASORB.2 file
      Natural orbitals for root   3 are written to the RASORB.3 file
      Natural orbitals for root   4 are written to the RASORB.4 file
      Spin density orbitals for root   1 are written to the SPDORB.1 file
      Spin density orbitals for root   2 are written to the SPDORB.2 file
      Spin density orbitals for root   3 are written to the SPDORB.3 file
      Spin density orbitals for root   4 are written to the SPDORB.4 file
 
--- Stop Module: rasscf at Wed Mar 20 14:36:44 2024 /rc=_RC_ALL_IS_WELL_ ---
--- Module rasscf spent 2 seconds ---

*** symbolic link created: INPORB -> MOLCAS.RasOrb
--- Start Module: mcpdft at Wed Mar 20 14:36:44 2024 ---
 
()()()()()()()()()()()()()()()()()()()()()()()()()()()()()()()()()()()()()()()()()()()()()()()()()()

                                              &MCPDFT

                                   only a single process is used
                       available to each process: 10 GB of memory, 1 thread?
                                            pid: 1142964
()()()()()()()()()()()()()()()()()()()()()()()()()()()()()()()()()()()()()()()()()()()()()()()()()()
 
 
      Header of the ONEINT file:
      --------------------------
      
      Integrals generated by Gateway/Seward, Wed Mar 20 14:36:29 2024
 
 
      OrdInt status: non-squared
 
 
      Cartesian coordinates in Angstrom:
      -----------------------------------------------------
      No.  Label        X            Y            Z        
      -----------------------------------------------------
       1   S1         0.00000000   0.00000000   0.00084100
       2   H2         0.00000000   0.97479900   1.18293400
       3   H3         0.00000000  -0.97479900   1.18293400
      -----------------------------------------------------
      Nuclear repulsion energy =   11.32343694
 
++    Wave function specifications:
      -----------------------------
 
      Number of closed shell electrons          10
      Number of electrons in active shells       8
      Max number of holes in RAS1 space          0
      Max nr of electrons in RAS3 space          0
      Number of inactive orbitals                5
      Number of active orbitals                  6
      Number of secondary orbitals              17
      Spin quantum number                      0.0
      State symmetry                             1
--
 
++    Orbital specifications:
      -----------------------
 
      Symmetry species                           1
                                                 a
      Frozen orbitals                            0
      Inactive orbitals                          5
      Active orbitals                            6
      RAS1 orbitals                              0
      RAS2 orbitals                              6
      RAS3 orbitals                              0
      Secondary orbitals                        17
      Deleted orbitals                           0
      Number of basis functions                 28
--
 
++    CI expansion specifications:
      ----------------------------
 
      Number of CSFs                             0
      Number of determinants                     0
      Number of root(s) required                 4
      Root chosen for geometry opt.              1
      highest root included in the CI            4
--
 
++    Optimization specifications:
      ----------------------------
 
      RASSCF algorithm: LK RI/DF
      This is a MC-PDFT calculation with functional: T:PBE                                                                           
      Exchange scaling factor                0.100E+01
      Correlation scaling factor             0.100E+01
      Potentials are computed for gradients
--
      Starting CI array(s) will be read from file
 
 
      Numerical integration parameters
      --------------------------------
      Radial quadrature type:                         MHL       
      Size of radial grid:                            75
      Lebedev angular grid:                           29
      Screening threshold for integral computation:   0.00E+00
      Radial quadrature accuracy:                     1.00E-25
      Maximum batch size:                             128
      AO values are stored on disk
 
      DFT functional specifications
      -----------------------------
      Using Libxc version: 6.2.2
      Please cite the following reference:
      S. Lehtola, C. Steigemann, M. J.T. Oliveira, and M. A.L. Marques.,  SoftwareX 7, 1–5 (2018) doi:10.1016/j.softx.2017.11.002
 
      * Perdew, Burke & Ernzerhof
        - J. P. Perdew, K. Burke, and M. Ernzerhof.,  Phys. Rev. Lett. 77, 3865 (1996) doi:10.1103/PhysRevLett.77.3865
        - J. P. Perdew, K. Burke, and M. Ernzerhof.,  Phys. Rev. Lett. 78, 1396 (1997) doi:10.1103/PhysRevLett.78.1396
      * Perdew, Burke & Ernzerhof
        - J. P. Perdew, K. Burke, and M. Ernzerhof.,  Phys. Rev. Lett. 77, 3865 (1996) doi:10.1103/PhysRevLett.77.3865
        - J. P. Perdew, K. Burke, and M. Ernzerhof.,  Phys. Rev. Lett. 78, 1396 (1997) doi:10.1103/PhysRevLett.78.1396
 
      The MO-coefficients are taken from the file:
      JOBOLD
      Title:(No title given)                                                        
      ================================================================================
 
      keyword "MSPD" is used and file recording rotated hamiltonian is found. 
 
      Switching calculation to Multi-State Pair-Density Functional Theory (MS-PDFT) 
      calculation.
 
      The MS-PDFT method is CMS-PDFT.
 
      ================================================================================
 

      ********************************************************************************
      ********************************************************************************
      **                      CMS-PDFT INTERMEDIATE STATE 0001                      ** 
      ********************************************************************************
      MCSCF reference energy                                             -398.56576874

      Integrated total density:                                                 18.000
      Integrated alpha density before functional transformation:                 9.000
      Integrated  beta density before functional transformation:                 9.000
      Integrated alpha density  after functional transformation:                 9.942
      Integrated  beta density  after functional transformation:                 8.058
      NOTE:
      Densities after transformation are intermediate quantities
      and should not be interpreted as real spin densities

      Exchange energy scaling factor                                          1.000000
      Correlation energy scaling factor                                       1.000000

      Integrated alpha exchange energy                                      -13.139098
      Integrated beta  exchange energy                                      -12.357354
      Integrated  correlation   energy                                       -0.651248

      Nuclear Repulsion energy                                             11.32343694
      Core energy                                                        -360.52985595
      CASSCF contribution energy                                         -372.90950209
      On-top energy                                                       -26.14770036

      Total MC-PDFT energy for intermediate state     1                  -399.05720245

      ********************************************************************************

  Calculating potentials for analytic gradients for MS-PDFT

      ********************************************************************************
      ********************************************************************************
      **                      CMS-PDFT INTERMEDIATE STATE 0002                      ** 
      ********************************************************************************
      MCSCF reference energy                                             -398.49251629

      Integrated total density:                                                 18.000
      Integrated alpha density before functional transformation:                 9.000
      Integrated  beta density before functional transformation:                 9.000
      Integrated alpha density  after functional transformation:                 9.983
      Integrated  beta density  after functional transformation:                 8.017
      NOTE:
      Densities after transformation are intermediate quantities
      and should not be interpreted as real spin densities

      Exchange energy scaling factor                                          1.000000
      Correlation energy scaling factor                                       1.000000

      Integrated alpha exchange energy                                      -13.151511
      Integrated beta  exchange energy                                      -12.357154
      Integrated  correlation   energy                                       -0.648748

      Nuclear Repulsion energy                                             11.32343694
      Core energy                                                        -360.52985595
      CASSCF contribution energy                                         -372.82756081
      On-top energy                                                       -26.15741323

      Total MC-PDFT energy for intermediate state     2                  -398.98497404

      ********************************************************************************

  Calculating potentials for analytic gradients for MS-PDFT

      ********************************************************************************
      ********************************************************************************
      **                      CMS-PDFT INTERMEDIATE STATE 0003                      ** 
      ********************************************************************************
      MCSCF reference energy                                             -398.56576874

      Integrated total density:                                                 18.000
      Integrated alpha density before functional transformation:                 9.000
      Integrated  beta density before functional transformation:                 9.000
      Integrated alpha density  after functional transformation:                 9.942
      Integrated  beta density  after functional transformation:                 8.058
      NOTE:
      Densities after transformation are intermediate quantities
      and should not be interpreted as real spin densities

      Exchange energy scaling factor                                          1.000000
      Correlation energy scaling factor                                       1.000000

      Integrated alpha exchange energy                                      -13.139098
      Integrated beta  exchange energy                                      -12.357354
      Integrated  correlation   energy                                       -0.651248

      Nuclear Repulsion energy                                             11.32343694
      Core energy                                                        -360.52985595
      CASSCF contribution energy                                         -372.90950209
      On-top energy                                                       -26.14770036

      Total MC-PDFT energy for intermediate state     3                  -399.05720245

      ********************************************************************************

  Calculating potentials for analytic gradients for MS-PDFT

      ********************************************************************************
      ********************************************************************************
      **                      CMS-PDFT INTERMEDIATE STATE 0004                      ** 
      ********************************************************************************
      MCSCF reference energy                                             -398.40950627

      Integrated total density:                                                 18.000
      Integrated alpha density before functional transformation:                 9.000
      Integrated  beta density before functional transformation:                 9.000
      Integrated alpha density  after functional transformation:                 9.898
      Integrated  beta density  after functional transformation:                 8.102
      NOTE:
      Densities after transformation are intermediate quantities
      and should not be interpreted as real spin densities

      Exchange energy scaling factor                                          1.000000
      Correlation energy scaling factor                                       1.000000

      Integrated alpha exchange energy                                      -13.090943
      Integrated beta  exchange energy                                      -12.395006
      Integrated  correlation   energy                                       -0.647837

      Nuclear Repulsion energy                                             11.32343694
      Core energy                                                        -360.52985595
      CASSCF contribution energy                                         -372.77142691
      On-top energy                                                       -26.13378581

      Total MC-PDFT energy for intermediate state     4                  -398.90521272

      ********************************************************************************

  Calculating potentials for analytic gradients for MS-PDFT
      ********************************************************************************
 
                                  CMS-PDFT FINAL RESULTS
 
      ********************************************************************************
 
      CMS-PDFT Effective Hamiltonian
      (diagonal values increased by   390.00 hartree)
       -9.057202  0.011364 -0.073087 -0.088311
        0.011364 -8.984974 -0.011364 -0.000000
       -0.073087 -0.011364 -9.057202 -0.088311
       -0.088311 -0.000000 -0.088311 -8.905213
 
      CMS-PDFT Energies:
      ::    CMS-PDFT Root    1   Total energy:     -399.18586564
      ::    CMS-PDFT Root    2   Total energy:     -399.00062214
      ::    CMS-PDFT Root    3   Total energy:     -398.96846761
      ::    CMS-PDFT Root    4   Total energy:     -398.84963626
      CMS-PDFT Eigenvectors:
 
       Intermediate-state Basis
       Root    1      Root    2      Root    3      Root    4
       -0.646029       0.493281      -0.506629      -0.287483
        0.000000      -0.716482      -0.697605      -0.000000
       -0.646029      -0.493281       0.506629      -0.287483
       -0.406563      -0.000000       0.000000       0.913623
       Reference-state Basis
       Root    1      Root    2      Root    3      Root    4
       -0.999989      -0.000000      -0.000000      -0.004680
       -0.000000       0.999873      -0.015925       0.000000
        0.000000      -0.015925      -0.999873       0.000000
       -0.004680      -0.000000       0.000000       0.999989
      ********************************************************************************
 
--- Stop Module: mcpdft at Wed Mar 20 14:36:48 2024 /rc=_RC_ALL_IS_WELL_ ---
--- Module mcpdft spent 3 seconds ---

*** symbolic link created: INPORB -> MOLCAS.RasOrb
--- Start Module: alaska at Wed Mar 20 14:36:48 2024 ---
 
()()()()()()()()()()()()()()()()()()()()()()()()()()()()()()()()()()()()()()()()()()()()()()()()()()

                                              &ALASKA

                                   only a single process is used
                       available to each process: 10 GB of memory, 1 thread?
                                            pid: 1143083
()()()()()()()()()()()()()()()()()()()()()()()()()()()()()()()()()()()()()()()()()()()()()()()()()()
 
--- Stop Module: alaska at Wed Mar 20 14:36:48 2024 /rc=_RC_INVOKED_OTHER_MODULE_ ---

*** symbolic link created: INPORB -> MOLCAS.RasOrb
--- Start Module: mclr at Wed Mar 20 14:36:48 2024 ---
 
()()()()()()()()()()()()()()()()()()()()()()()()()()()()()()()()()()()()()()()()()()()()()()()()()()

                                               &MCLR

                                   only a single process is used
                       available to each process: 10 GB of memory, 1 thread?
                                            pid: 1143086
()()()()()()()()()()()()()()()()()()()()()()()()()()()()()()()()()()()()()()()()()()()()()()()()()()
 
 No .RLXPT2  or MCKINT  , I hope that is OK
 Seward mode is assumed, reading perturbation from ONEINT  
 OrdInt status: non-squared
 
++   Wave function specifications:
     -----------------------------
 
     Number of closed shell electrons             10
     Number of electrons in active shells          8
     Max number of holes in RAS1 space             0
     Max number of electrons in RAS3 space         0
     Number of inactive orbitals                   5
     Number of active orbitals                     6
     Number of secondary orbitals                 17
     Spin quantum number                         0.0
     State symmetry                                1
     Number of CI roots                            4
     States considered                             1     2     3     4
     Weights                                   0.250 0.250 0.250 0.250
 
     Symmetry species                              1
     Skipped sym. species                          0
     Frozen orbitals                               0
     Inactive orbitals                             5
     Active orbitals                               6
     RAS1 orbitals                                 0
     RAS2 orbitals                                 6
     RAS3 orbitals                                 0
     Deleted orbitals                              0
     Number of basis functions                    28
     Number of orbitals                           28
     Number of configurations                    105
     Number of combinations                      120
     Natural orbitals are used in the last CI
     RASSCF state energy =           -399.1858656450
     Size of explicit Hamiltonian in PCG:        100
--
 
     Convergence threshold=               1.0000E-04
     Max number of iterations in PCG:            200
     Using the Cho-MO Algorithm
     Lagrangian multipliers are calculated for state no.   1
 
 
     Linear response function is computed for root no. =   1
 
      Transformation of integrals
  Reordering of the Cholesky vectors to full storage. 
  Elapsed time for the reordering section:   9.999999999999995E-003
  CPU time for the reordering section:   9.999999999999995E-003
 
 TIMING INFORMATION:   CPU(s)   %CPU   Elapsed(s)
 Transformation          0.00    0.0         0.00
 Generation              0.02    2.0         0.02
 TOTAL                   0.04    4.0         0.05
 
      Residual in Qaa Lagrange Multipliers:    0.000000000E+00
        Iteration       Delta           Res(kappa)       Res(CI)          DeltaK
            DeltaC
            1      1.378581241E-01  5.024825090E-01  3.369099086E-01  1.039244652E-01  1.385693481E-01
            2      1.018769660E-02  1.697245529E-01  1.003509428E-01  8.888544872E-03  9.031714914E-03
            3      1.824199585E-03  7.874682138E-02  4.089547449E-02  1.445190960E-03  1.763594277E-03
            4      2.101872012E-04  2.826687078E-02  1.451635384E-02  1.672490955E-04  2.024722846E-04
            5      2.215667348E-05  7.097677714E-03  5.277027764E-03  2.199113266E-05  1.698267665E-05
            6      2.245922706E-06  2.799148337E-03  1.502346120E-03  1.819136898E-06  2.131463510E-06
            7      3.892198261E-07  1.187720710E-03  6.296646329E-04  3.004974449E-07  3.841441055E-07
            8      5.407506311E-08  4.637371402E-04  2.321604484E-04  3.980535897E-08  5.531321557E-08
            9      4.331248230E-09  1.162967490E-04  7.823388240E-05  4.685721573E-09  2.932987198E-09
      Perturbation no:    1 converged in    9 steps.
 
      Properties not supported for MSPDFT  
 
++    Molecular properties:
      ---------------------
 
      Charge (e):
                      =   -0.0000
      Dipole Moment (Debye):
      Origin of the operator (Ang)=    0.0000    0.0000    0.0000
                   X=  3.0646E-01               Y= -8.4282E-01               Z=  2.7172E-01           Total=  9.3706E-01
      Quadrupole Moment (Debye*Ang):
      Origin of the operator (Ang)=    0.0000    0.0000    0.0709
                  XX= -1.5448E+01              XY=  7.2195E-01              XZ= -3.3606E-02              YY= -1.5031E+01
                  YZ= -2.5999E+00              ZZ= -1.5774E+01
      In traceless form (Debye*Ang)
                  XX= -4.5957E-02              XY=  1.0829E+00              XZ= -5.0409E-02              YY=  5.8023E-01
                  YZ= -3.8999E+00              ZZ= -5.3428E-01
--
 
 
      The response parameters are written to the file RESP.
 ###############################################################################
 ###############################################################################
 ###                                                                         ###
 ###                                                                         ###
 ###    WARNING: RunFile label nBas                                          ###
 ###    was used       61 times                                              ###
 ###                                                                         ###
 ###                                                                         ###
 ###############################################################################
 ###############################################################################
--- Stop Module: mclr at Wed Mar 20 14:36:49 2024 /rc=_RC_ALL_IS_WELL_ ---

*** symbolic link created: INPORB -> MOLCAS.RasOrb
--- Start Module: alaska at Wed Mar 20 14:36:49 2024 ---
 
()()()()()()()()()()()()()()()()()()()()()()()()()()()()()()()()()()()()()()()()()()()()()()()()()()

                                              &ALASKA

                                   only a single process is used
                       available to each process: 10 GB of memory, 1 thread?
                                            pid: 1143094
()()()()()()()()()()()()()()()()()()()()()()()()()()()()()()()()()()()()()()()()()()()()()()()()()()
 
 
                     Threshold for contributions to the gradient: 0.100E-06
 
 
                    ********************************************
                    * Symmetry Adapted Cartesian Displacements *
                    ********************************************
 
 
           Irreducible representation : a  
           Basis function(s) of irrep: x, y, xy, Rz, z, xz, Ry, yz, Rx, I                                              
 
 Basis Label        Type   Center Phase
   1   S1           x         1     1
   2   S1           y         1     1
   3   S1           z         1     1
   4   H2           x         2     1
   5   H2           y         2     1
   6   H2           z         2     1
   7   H3           x         3     1
   8   H3           y         3     1
   9   H3           z         3     1
 
                     No automatic utilization of translational and rotational invariance of the energy is employed.
 
 
 DFT contribution computed for a moving grid.
 
 RI-ERI gradients!
 
 Wavefunction type: MSPDFT  
 MS-PDFT Functional type:   T:PBE                                                                           
 
 A total of 13025. entities were prescreened and 13025. were kept.
 A total of 253470. entities were prescreened and 196737. were kept.
 
 **************************************************
 *                                                *
 *              Molecular gradients               *
 *                                                *
 **************************************************
 
  Irreducible representation: a  
 ------------------------------------------------------------------------------------------
                              X                       Y                       Z
 ------------------------------------------------------------------------------------------
  S1                2.49338735473481E+00    1.88485360378669E+00   -4.72629798895615E+00
  H2               -1.05231079586577E+00   -4.20762842460896E-01    2.76537463073859E+00
  H3               -1.44107655886905E+00   -1.46409076132579E+00    1.96092335821756E+00
 ------------------------------------------------------------------------------------------
 
--- Stop Module: alaska at Wed Mar 20 14:36:54 2024 /rc=_RC_ALL_IS_WELL_ ---
--- Module alaska spent 5 seconds ---

.##################.
.# Happy landing! #.
.##################.

    Timing: Wall=12.07 User=10.68 System=1.22
