   This run of MOLCAS is using the pymolcas driver

                             OPE
                             OPE          NMOL  CASOP  ENMOLC A   SO
                 OPE        NMOLC        AS  OP EN  MO LC     AS  OP
                OPENM       OL CA        SO  PE NM  OL CA     SOP EN
                OP EN      MO   LC       AS  OP ENMOL  CASO   PENMOL
                OP  EN     MO   LC       AS  OP EN     MO     LC ASO
               OP   E  NMOL  C  AS       OP  EN MO     LC     AS  OP
               OP  E   NMO   LC AS        OPEN  MO     LCASOP EN   M
               O  PEN   MO  LCA  SO
            OPE   NMO   L   CAS    OP
        OPENMOL  CASOP     ENMOL   CASOPE
     OPENMOLCA   SOPENMOLCASOPEN   MOLCASOPE
    OPENMOLCAS   OP           EN   MOL    CAS
    OPENMOLCAS       OP  ENM        O     LCA
    OPENMOLCAS    OPEN  MOLCASO     P  E  NMO
    OPENMOLCAS     OP               E  N  MOL
    OPENMOLCA   SO           PENM   O  L  CAS    OPEN    MO    LCAS
    OPENMOLCA   SOP           ENM   O  L  CAS   OP  EN  MOLC  AS   O
    OPENMOLCA   SOPE           NM      O  LCA   S      OP  EN MO
    OPENMOLC                AS         O  PEN   M      OL  CA  SOPE
    OPENMO        LCASOPE  NMOL        C  ASO   P      ENMOLC     AS
    OPE     NMO      LCA  SO     P     E   NM   OL  CA SO  PE N   MO
          OPENMOLCA            SOPE   NMO        LCAS  O    P  ENMO
     OPENMOLCASOPENMOLCASOPENMOLCASOPENMOLCA
        OPENMOLCASOPENMOLCASOPENMOLCASOPE
            OPENMOLCASOPENMOLCASOPENM
               OPENMOLCASOPENMOLCA        version: v23.10
                   OPENMOLCASO
                       OPE                tag:

 OpenMolcas is free software; you can redistribute it and/or modify it
 under the terms of the GNU Lesser General Public License version 2.1.
 OpenMolcas is distributed in the hope that it will be useful, but it
 is provided "as is" and without any express or implied warranties.
 For more details see the full text of the license in the file
 LICENSE or in <http://www.gnu.org/licenses/>.

                 Copyright (C) The OpenMolcas Authors
           For the author list and the recommended citation,
                   consult the file CONTRIBUTORS.md

           *************************************************
           * pymolcas version py2.25                       *
           *   build 2b27fa14244bdc32cb1957e6230cd793      *
           *   (after the EMIL interpreter by V. Veryazov) *
           *************************************************

configuration info
------------------
Host name: manganese.itc.univie.ac.at (Linux)
C Compiler ID: Clang
C flags: -std=gnu99
Fortran Compiler ID: Intel
Fortran flags: -fpp -i8 -heap-arrays
Definitions: _MOLCAS_;_I8_;_LINUX_
Parallel: OFF (GA=OFF)


   ----------------------------------------------------------------------------------
  |
  |           Project: MOLCAS
  |    Submitted from: /public/manganese/scratch/tmp/sascha.925337/WORK/nacdr_2_1_2_2
  |      Scratch area: /public/manganese/scratch/tmp/sascha.925337/WORK/nacdr_2_1_2_2
  |   Save outputs to: WORKDIR
  |            Molcas: /usr/license/openmolcas/v23.10
  |
  | Scratch area is NOT empty
  |
  |        MOLCASMEM = 10000
  |    MOLCAS_DRIVER = /usr/license/openmolcas/v23.10/pymolcas
  |    MOLCAS_NPROCS = 1
  |    MOLCAS_SOURCE = /usr/license/openmolcas/v23.10
  | MOLCAS_STRUCTURE = 0
  |
   ----------------------------------------------------------------------------------

++ ---------   Input file   ---------

>>> COPY $master_path/MOLCAS.2.JobIph MOLCAS.2.JobIph

>>> COPY MOLCAS.2.JobIph JOBOLD

&RASSCF
SPIN=2
NACTEL=7 0 0
INACTIVE=5
RAS2=6
ITERATIONS=200,100
CIROOT=2 2 1
ORBLISTING=NOTHING
PRWF=0.1
CMSInter
THRS=0.000000010000 0.000100000000 0.000100000000
JOBIPH
CMSI

&MCPDFT
KSDFT=t:pbe
GRAD
MSPDFT
WJOB
nac=1 2

&MCLR
THRESHOLD=0.0001
nac=1 2

&ALASKA

>>> COPY MOLCAS.2.JobIph JOB001

>>> COPY MOLCAS.JobIph JOB002

&RASSI
NROFJOBIPHS
2 2 2
1 2
1 2
MEIN
EJOB
OVERLAPS

-- ----------------------------------

>>> COPY /public/manganese/scratch/tmp/sascha.925337/WORK/master/MOLCAS.2.JobIph MOLCAS.2.JobIph

>>> COPY MOLCAS.2.JobIph JOBOLD

--- Start Module: rasscf at Wed Mar 20 14:36:42 2024 ---
 
()()()()()()()()()()()()()()()()()()()()()()()()()()()()()()()()()()()()()()()()()()()()()()()()()()

                                              &RASSCF

                                   only a single process is used
                       available to each process: 10 GB of memory, 1 thread?
                                            pid: 1142875
()()()()()()()()()()()()()()()()()()()()()()()()()()()()()()()()()()()()()()()()()()()()()()()()()()
 
 
      Header of the ONEINT file:
      --------------------------
      
      Integrals generated by Gateway/Seward, Wed Mar 20 14:36:29 2024
 
 
      OrdInt status: non-squared
 
 
      Cartesian coordinates in Angstrom:
      -----------------------------------------------------
      No.  Label        X            Y            Z        
      -----------------------------------------------------
       1   S1         0.00000000   0.00000000   0.00084100
       2   H2         0.00000000   0.97479900   1.18293400
       3   H3         0.00000000  -0.97479900   1.18293400
      -----------------------------------------------------
      Nuclear repulsion energy =   11.32343694
 
++    Wave function specifications:
      -----------------------------
 
      Number of closed shell electrons          10
      Number of electrons in active shells       7
      Max number of holes in RAS1 space          0
      Max nr of electrons in RAS3 space          0
      Number of inactive orbitals                5
      Number of active orbitals                  6
      Number of secondary orbitals              17
      Spin quantum number                      0.5
      State symmetry                             1
--
 
++    Orbital specifications:
      -----------------------
 
      Symmetry species                           1
                                                 a
      Frozen orbitals                            0
      Inactive orbitals                          5
      Active orbitals                            6
      RAS1 orbitals                              0
      RAS2 orbitals                              6
      RAS3 orbitals                              0
      Secondary orbitals                        17
      Deleted orbitals                           0
      Number of basis functions                 28
--
 
++    CI expansion specifications:
      ----------------------------
 
      Number of CSFs                           210
      Number of determinants                   300
      Number of root(s) required                 2
      Root chosen for geometry opt.              2
      CI roots used                              1     2
      weights                                0.500 0.500
      highest root included in the CI            2
      max. size of the explicit Hamiltonian    200
--
 
++    Optimization specifications:
      ----------------------------
 
      RASSCF algorithm: LK RI/DF
      Maximum number of macro iterations       200
      Maximum number of SX iterations          100
      Threshold for RASSCF energy            0.100E-07
      Threshold for max MO rotation          0.100E-03
      Threshold for max BLB element          0.100E-03
      Level shift parameter                  0.500E+00
      Make Quasi-Newton update
--
 
      The MO-coefficients are taken from the file:
      JOBOLD
      Title:(No title given)                                                        
 
      Total molecular charge    1.00
 
      ************************************************************************************************************************
      *                                                                                                                      *
      *                                            Wave function control section                                             *
      *                                                                                                                      *
      ************************************************************************************************************************
 
 
                                         RASSCF iterations: Energy and convergence statistics
                                         ----------------------------------------------------
 
      Iter CI   SX   CI       RASSCF       Energy    max ROT     max BLB   max BLB  Level Ln srch  Step   QN   Walltime
          iter iter root      energy       change     param      element    value   shift minimum  type update hh:mm:ss
 Nr of preliminary CI iterations:   3
        1   1    3    0  -398.30489681    0.00E+00  -0.28E-04    7  16 1 -0.38E-05   0.00   0.00    SX    NO    0:00:00
        2   1    2    0  -398.30489681   -0.26E-09  -0.12E-04    7  28 1  0.12E-05   0.00   0.00    SX    NO    0:00:00
        3   1    2    0  -398.30489681   -0.45E-10  -0.53E-05    7  28 1  0.62E-06   0.00   0.00    SX    NO    0:00:00
        4   3    2    0  -398.30489681   -0.12E-08  -0.11E-04    7  16 1 -0.14E-05   0.00   0.00    SX    NO    0:00:00
      Convergence after  4 iterations
        5   1    2    0  -398.30489681   -0.39E-10  -0.11E-04    7  28 1  0.50E-06   0.00   0.00    SX    NO    0:00:00
 
 
     CMS INTERMEDIATE-STATE OPTIMIZATION
 
 
    CMS INTERMEDIATE-STATE OPTIMIZATION
     START MATRX           XMS INTERMEDIATE STATES
     OPT ALGO                               JACOBI
     Q_a-a THRESHOLD                      1.00E-08
     MAX CYCLES                                100
     MIN CYCLES                                  5
 =======================================================================
       Cycle   Rot. Angle (deg.)         Q_a-a             Q_a-a Diff.
 -----------------------------------------------------------------------
         1         -45.0              21.71007147          6.3055E-003
         2         -45.0              21.71007147          0.0000E+000
         3         -45.0              21.71007147          3.5527E-015
         4         -45.0              21.71007147          0.0000E+000
         5         -45.0              21.71007147         -3.5527E-015
    CONVERGENCE REACHED
 =======================================================================
 
 =======================================================================
 
           Do_Rotate.txt is found in scratch directory.
           Following properties are for CMS intermediate states.
 
 =======================================================================
 
      ************************************************************************************************************************
                                                      Wave function printout:
                       occupation of active orbitals, and spin coupling of open shells (u,d: Spin up or down)
      ************************************************************************************************************************
 
      Note: transformation to natural orbitals
      has been made, which may change the order of the CSFs.
 
      printout of CI-coefficients larger than  0.10 for root  1
      energy=    -398.304897
      conf/sym  111111     Coeff  Weight
             1  222u00  -0.68913 0.47491
             4  22u200  -0.68889 0.47457
 
      printout of CI-coefficients larger than  0.10 for root  2
      energy=    -398.304897
      conf/sym  111111     Coeff  Weight
             1  222u00   0.68913 0.47491
             4  22u200  -0.68889 0.47457
 
      Natural orbitals and occupation numbers for root  1
      sym 1:   1.991156   1.944364   1.009934   1.967714   0.052398   0.034434
 
      Natural orbitals and occupation numbers for root  2
      sym 1:   1.991156   1.944364   1.009934   1.967714   0.052398   0.034434
 
      ************************************************************************************************************************
      *                                                                                                                      *
      *                                                    Final results                                                     *
      *                                                                                                                      *
      ************************************************************************************************************************
 
 
++    Wave function specifications:
      -----------------------------
 
      Number of closed shell electrons          10
      Number of electrons in active shells       7
      Max number of holes in RAS1 space          0
      Max nr of electrons in RAS3 space          0
      Number of inactive orbitals                5
      Number of active orbitals                  6
      Number of secondary orbitals              17
      Spin quantum number                      0.5
      State symmetry                             1
--
 
++    Orbital specifications:
      -----------------------
 
      Symmetry species                           1
                                                 a
      Frozen orbitals                            0
      Inactive orbitals                          5
      Active orbitals                            6
      RAS1 orbitals                              0
      RAS2 orbitals                              6
      RAS3 orbitals                              0
      Secondary orbitals                        17
      Deleted orbitals                           0
      Number of basis functions                 28
--
 
++    CI expansion specifications:
      ----------------------------
 
      Number of CSFs                           210
      Number of determinants                   300
      Number of root(s) required                 2
      CI roots used                              1     2
      weights                                0.500 0.500
      highest root included in the CI            2
      Root passed to geometry opt.               2
--
 
++    Final optimization conditions:
      ------------------------------
 
      Average CI energy                            -398.30489681
      RASSCF energy for state  2                   -398.30489681
      Super-CI energy                                -0.00000000
      RASSCF energy change                            0.00000000
      Max change in MO coefficients              -0.134E-04
      Max non-diagonal density matrix element    -0.111E-04
      Maximum BLB matrix element                  0.498E-06
      (orbital pair   7,  28 in symmetry   1)
      Norm of electronic gradient            0.758E-01
--
 
 
      Final state energy(ies):
      ------------------------
 
::    RASSCF root number  1 Total energy:   -398.30489681
::    RASSCF root number  2 Total energy:   -398.30489681
      Von Neumann Entropy (Root   1) =  0.80535
 

      Mulliken population analysis for root number:  1
      -----------------------------------------------
 
 
++    Molecular charges:
      ------------------
 
      Mulliken charges per centre
      ---------------------------
 
                S1      H2      H3    
      Total   15.5422  0.7289  0.7289
 
      N-E      0.4578  0.2711  0.2711
 
      Total electronic charge=   17.000000
 
      Total            charge=    1.000000
--
 
 

      Expectation values of various properties for root number:  1
      -----------------------------------------------------------
 
 
++    Molecular properties:
      ---------------------
 
      Charge (e):
                      =    1.0000
      Dipole Moment (Debye):
      Origin of the operator (Ang)=    0.0000    0.0000    0.0000
                   X=  8.0201E-01               Y=  1.0842E-05               Z=  2.5966E+00           Total=  2.7176E+00
      Center of Charge (Ang)
                     X=    0.16697401               Y=    0.00000226               Z=    0.54059423
      Quadrupole Moment (Debye*Ang):
      Origin of the operator (Ang)=    0.0000    0.0000    0.0709
                  XX= -1.2903E+01              XY= -1.0023E-05              XZ= -1.1125E+00              YY= -9.2603E+00
                  YZ=  2.2982E-05              ZZ= -7.5017E+00
      In traceless form (Debye*Ang)
                  XX= -4.5219E+00              XY= -1.5035E-05              XZ= -1.6687E+00              YY=  9.4195E-01
                  YZ=  3.4472E-05              ZZ=  3.5799E+00
--
 

      Mulliken spin population analysis for root number:  1
      ---------------------------------------------------
 
 
++    Molecular charges:
      ------------------
 
      Mulliken spin population per centre
      ---------------------------
 
                S1      H2      H3    
      Total    0.8794  0.0603  0.0603
 
      Total electronic spin=    1.000000
--
 
 
      Von Neumann Entropy (Root   2) =  0.80535
 

      Mulliken population analysis for root number:  2
      -----------------------------------------------
 
 
++    Molecular charges:
      ------------------
 
      Mulliken charges per centre
      ---------------------------
 
                S1      H2      H3    
      Total   15.5422  0.7289  0.7289
 
      N-E      0.4578  0.2711  0.2711
 
      Total electronic charge=   17.000000
 
      Total            charge=    1.000000
--
 
 

      Expectation values of various properties for root number:  2
      -----------------------------------------------------------
 
 
++    Molecular properties:
      ---------------------
 
      Charge (e):
                      =    1.0000
      Dipole Moment (Debye):
      Origin of the operator (Ang)=    0.0000    0.0000    0.0000
                   X= -8.0201E-01               Y=  1.0842E-05               Z=  2.5966E+00           Total=  2.7176E+00
      Center of Charge (Ang)
                     X=   -0.16697401               Y=    0.00000226               Z=    0.54059423
      Quadrupole Moment (Debye*Ang):
      Origin of the operator (Ang)=    0.0000    0.0000    0.0709
                  XX= -1.2903E+01              XY=  1.0023E-05              XZ=  1.1125E+00              YY= -9.2603E+00
                  YZ=  2.2982E-05              ZZ= -7.5017E+00
      In traceless form (Debye*Ang)
                  XX= -4.5219E+00              XY=  1.5035E-05              XZ=  1.6687E+00              YY=  9.4195E-01
                  YZ=  3.4472E-05              ZZ=  3.5799E+00
--
 

      Mulliken spin population analysis for root number:  2
      ---------------------------------------------------
 
 
++    Molecular charges:
      ------------------
 
      Mulliken spin population per centre
      ---------------------------
 
                S1      H2      H3    
      Total    0.8794  0.0603  0.0603
 
      Total electronic spin=    1.000000
--
 
 
 
      Input file to MOLDEN was generated!
 
 
      Input file to MOLDEN was generated!
 
 
      Input file to MOLDEN was generated!
 
      Average orbitals are written to the RASORB file
      Natural orbitals for root   1 are written to the RASORB.1 file
      Natural orbitals for root   2 are written to the RASORB.2 file
      Spin density orbitals for root   1 are written to the SPDORB.1 file
      Spin density orbitals for root   2 are written to the SPDORB.2 file
 
--- Stop Module: rasscf at Wed Mar 20 14:36:44 2024 /rc=_RC_ALL_IS_WELL_ ---
--- Module rasscf spent 1 second ---

*** symbolic link created: INPORB -> MOLCAS.RasOrb
--- Start Module: mcpdft at Wed Mar 20 14:36:44 2024 ---
 
()()()()()()()()()()()()()()()()()()()()()()()()()()()()()()()()()()()()()()()()()()()()()()()()()()

                                              &MCPDFT

                                   only a single process is used
                       available to each process: 10 GB of memory, 1 thread?
                                            pid: 1142949
()()()()()()()()()()()()()()()()()()()()()()()()()()()()()()()()()()()()()()()()()()()()()()()()()()
 
 
      Header of the ONEINT file:
      --------------------------
      
      Integrals generated by Gateway/Seward, Wed Mar 20 14:36:29 2024
 
 
      OrdInt status: non-squared
 
 
      Cartesian coordinates in Angstrom:
      -----------------------------------------------------
      No.  Label        X            Y            Z        
      -----------------------------------------------------
       1   S1         0.00000000   0.00000000   0.00084100
       2   H2         0.00000000   0.97479900   1.18293400
       3   H3         0.00000000  -0.97479900   1.18293400
      -----------------------------------------------------
      Nuclear repulsion energy =   11.32343694
 
++    Wave function specifications:
      -----------------------------
 
      Number of closed shell electrons          10
      Number of electrons in active shells       7
      Max number of holes in RAS1 space          0
      Max nr of electrons in RAS3 space          0
      Number of inactive orbitals                5
      Number of active orbitals                  6
      Number of secondary orbitals              17
      Spin quantum number                      0.5
      State symmetry                             1
--
 
++    Orbital specifications:
      -----------------------
 
      Symmetry species                           1
                                                 a
      Frozen orbitals                            0
      Inactive orbitals                          5
      Active orbitals                            6
      RAS1 orbitals                              0
      RAS2 orbitals                              6
      RAS3 orbitals                              0
      Secondary orbitals                        17
      Deleted orbitals                           0
      Number of basis functions                 28
--
 
++    CI expansion specifications:
      ----------------------------
 
      Number of CSFs                             0
      Number of determinants                     0
      Number of root(s) required                 2
      Root chosen for geometry opt.              2
      highest root included in the CI            2
--
 
++    Optimization specifications:
      ----------------------------
 
      RASSCF algorithm: LK RI/DF
      This is a MC-PDFT calculation with functional: T:PBE                                                                           
      Exchange scaling factor                0.100E+01
      Correlation scaling factor             0.100E+01
      Potentials are computed for gradients
--
      Starting CI array(s) will be read from file
 
 
      Numerical integration parameters
      --------------------------------
      Radial quadrature type:                         MHL       
      Size of radial grid:                            75
      Lebedev angular grid:                           29
      Screening threshold for integral computation:   0.00E+00
      Radial quadrature accuracy:                     1.00E-25
      Maximum batch size:                             128
      AO values are stored on disk
 
      DFT functional specifications
      -----------------------------
      Using Libxc version: 6.2.2
      Please cite the following reference:
      S. Lehtola, C. Steigemann, M. J.T. Oliveira, and M. A.L. Marques.,  SoftwareX 7, 1–5 (2018) doi:10.1016/j.softx.2017.11.002
 
      * Perdew, Burke & Ernzerhof
        - J. P. Perdew, K. Burke, and M. Ernzerhof.,  Phys. Rev. Lett. 77, 3865 (1996) doi:10.1103/PhysRevLett.77.3865
        - J. P. Perdew, K. Burke, and M. Ernzerhof.,  Phys. Rev. Lett. 78, 1396 (1997) doi:10.1103/PhysRevLett.78.1396
      * Perdew, Burke & Ernzerhof
        - J. P. Perdew, K. Burke, and M. Ernzerhof.,  Phys. Rev. Lett. 77, 3865 (1996) doi:10.1103/PhysRevLett.77.3865
        - J. P. Perdew, K. Burke, and M. Ernzerhof.,  Phys. Rev. Lett. 78, 1396 (1997) doi:10.1103/PhysRevLett.78.1396
 
      The MO-coefficients are taken from the file:
      JOBOLD
      Title:(No title given)                                                        
      ================================================================================
 
      keyword "MSPD" is used and file recording rotated hamiltonian is found. 
 
      Switching calculation to Multi-State Pair-Density Functional Theory (MS-PDFT) 
      calculation.
 
      The MS-PDFT method is CMS-PDFT.
 
      ================================================================================
 
      ================================================================================
 
      keyword NAC is used for states:  1  2
 
      ================================================================================

      ********************************************************************************
      ********************************************************************************
      **                      CMS-PDFT INTERMEDIATE STATE 0001                      ** 
      ********************************************************************************
      MCSCF reference energy                                             -398.30489681

      Integrated total density:                                                 17.000
      Integrated alpha density before functional transformation:                 9.000
      Integrated  beta density before functional transformation:                 8.000
      Integrated alpha density  after functional transformation:                 9.677
      Integrated  beta density  after functional transformation:                 7.323
      NOTE:
      Densities after transformation are intermediate quantities
      and should not be interpreted as real spin densities

      Exchange energy scaling factor                                          1.000000
      Correlation energy scaling factor                                       1.000000

      Integrated alpha exchange energy                                      -13.188423
      Integrated beta  exchange energy                                      -12.058913
      Integrated  correlation   energy                                       -0.615111

      Nuclear Repulsion energy                                             11.32343694
      Core energy                                                        -360.53278083
      CASSCF contribution energy                                         -372.88112952
      On-top energy                                                       -25.86244729

      Total MC-PDFT energy for intermediate state     1                  -398.74357681

      ********************************************************************************

  Calculating potentials for analytic gradients for MS-PDFT

      ********************************************************************************
      ********************************************************************************
      **                      CMS-PDFT INTERMEDIATE STATE 0002                      ** 
      ********************************************************************************
      MCSCF reference energy                                             -398.30489681

      Integrated total density:                                                 17.000
      Integrated alpha density before functional transformation:                 9.000
      Integrated  beta density before functional transformation:                 8.000
      Integrated alpha density  after functional transformation:                 9.677
      Integrated  beta density  after functional transformation:                 7.323
      NOTE:
      Densities after transformation are intermediate quantities
      and should not be interpreted as real spin densities

      Exchange energy scaling factor                                          1.000000
      Correlation energy scaling factor                                       1.000000

      Integrated alpha exchange energy                                      -13.188423
      Integrated beta  exchange energy                                      -12.058913
      Integrated  correlation   energy                                       -0.615111

      Nuclear Repulsion energy                                             11.32343694
      Core energy                                                        -360.53278083
      CASSCF contribution energy                                         -372.88112952
      On-top energy                                                       -25.86244729

      Total MC-PDFT energy for intermediate state     2                  -398.74357681

      ********************************************************************************

  Calculating potentials for analytic gradients for MS-PDFT
      ********************************************************************************
 
                                  CMS-PDFT FINAL RESULTS
 
      ********************************************************************************
 
      CMS-PDFT Effective Hamiltonian
      (diagonal values increased by   390.00 hartree)
       -8.743577  0.065502
        0.065502 -8.743577
 
      CMS-PDFT Energies:
      ::    CMS-PDFT Root    1   Total energy:     -398.80907879
      ::    CMS-PDFT Root    2   Total energy:     -398.67807483
      CMS-PDFT Eigenvectors:
 
       Intermediate-state Basis
       Root    1      Root    2
       -0.707107      -0.707107
        0.707107      -0.707107
       Reference-state Basis
       Root    1      Root    2
       -1.000000      -0.000000
        0.000000      -1.000000
      ********************************************************************************
 
--- Stop Module: mcpdft at Wed Mar 20 14:36:46 2024 /rc=_RC_ALL_IS_WELL_ ---
--- Module mcpdft spent 1 second ---

*** symbolic link created: INPORB -> MOLCAS.RasOrb
--- Start Module: mclr at Wed Mar 20 14:36:46 2024 ---
 
()()()()()()()()()()()()()()()()()()()()()()()()()()()()()()()()()()()()()()()()()()()()()()()()()()

                                               &MCLR

                                   only a single process is used
                       available to each process: 10 GB of memory, 1 thread?
                                            pid: 1142990
()()()()()()()()()()()()()()()()()()()()()()()()()()()()()()()()()()()()()()()()()()()()()()()()()()
 
 No .RLXPT2  or MCKINT  , I hope that is OK
 Seward mode is assumed, reading perturbation from ONEINT  
 OrdInt status: non-squared
 
++   Wave function specifications:
     -----------------------------
 
     Number of closed shell electrons             10
     Number of electrons in active shells          7
     Max number of holes in RAS1 space             0
     Max number of electrons in RAS3 space         0
     Number of inactive orbitals                   5
     Number of active orbitals                     6
     Number of secondary orbitals                 17
     Spin quantum number                         0.5
     State symmetry                                1
     Number of CI roots                            2
     States considered                             1     2
     Weights                                   0.500 0.500
 
     Symmetry species                              1
     Skipped sym. species                          0
     Frozen orbitals                               0
     Inactive orbitals                             5
     Active orbitals                               6
     RAS1 orbitals                                 0
     RAS2 orbitals                                 6
     RAS3 orbitals                                 0
     Deleted orbitals                              0
     Number of basis functions                    28
     Number of orbitals                           28
     Number of configurations                    210
     Number of combinations                      300
     Natural orbitals are used in the last CI
     RASSCF state energy =           -398.6780748349
     Size of explicit Hamiltonian in PCG:        100
--
 
     Convergence threshold=               1.0000E-04
     Max number of iterations in PCG:            200
     Using the Cho-MO Algorithm
     Lagrangian multipliers are calculated for states no.   1/  2
                                            (SA roots no.   0/  0)
 
 
     Linear response function is computed for root no. =   2
 
  Reordering of the Cholesky vectors to full storage. 
  Elapsed time for the reordering section:   9.999999999999995E-003
  CPU time for the reordering section:   9.999999999999995E-003
 
 TIMING INFORMATION:   CPU(s)   %CPU   Elapsed(s)
 Transformation          0.00    0.0         0.00
 Generation              0.02    2.0         0.02
 TOTAL                   0.04    4.0         0.05
 
      Residual in Qaa Lagrange Multipliers:    0.000000000E+00
        Iteration       Delta           Res(kappa)       Res(CI)          DeltaK
            DeltaC
            1      4.732739000E-02  1.325158829E-01  1.674103514E-01  1.817523227E-02  6.166499443E-03
            2      2.776422601E-03  2.694872661E-02  4.289126563E-02  1.076241075E-03  3.517466948E-04
            3      2.696235370E-04  7.879251888E-03  1.154133819E-02  7.912303120E-05  5.955150381E-05
            4      4.369157583E-05  3.790004088E-03  5.086506831E-03  1.561638157E-05  6.855354505E-06
            5      6.177284530E-06  1.458707600E-03  1.833838490E-03  2.118452430E-06  1.058688814E-06
            6      5.880352593E-07  3.960439858E-04  6.267252567E-04  2.352504436E-07  6.719168392E-08
            7      4.229164481E-08  8.175285067E-05  1.571478650E-04  1.545627783E-08  6.295436602E-09
      Perturbation no:    1 converged in    7 steps.
 
 
      The response parameters are written to the file RESP.
--- Stop Module: mclr at Wed Mar 20 14:36:46 2024 /rc=_RC_ALL_IS_WELL_ ---

*** symbolic link created: INPORB -> MOLCAS.RasOrb
--- Start Module: alaska at Wed Mar 20 14:36:46 2024 ---
 
()()()()()()()()()()()()()()()()()()()()()()()()()()()()()()()()()()()()()()()()()()()()()()()()()()

                                              &ALASKA

                                   only a single process is used
                       available to each process: 10 GB of memory, 1 thread?
                                            pid: 1143034
()()()()()()()()()()()()()()()()()()()()()()()()()()()()()()()()()()()()()()()()()()()()()()()()()()
 
 
                     Threshold for contributions to the gradient: 0.100E-06
 
 
                    ********************************************
                    * Symmetry Adapted Cartesian Displacements *
                    ********************************************
 
 
           Irreducible representation : a  
           Basis function(s) of irrep: x, y, xy, Rz, z, xz, Ry, yz, Rx, I                                              
 
 Basis Label        Type   Center Phase
   1   S1           x         1     1
   2   S1           y         1     1
   3   S1           z         1     1
   4   H2           x         2     1
   5   H2           y         2     1
   6   H2           z         2     1
   7   H3           x         3     1
   8   H3           y         3     1
   9   H3           z         3     1
 
                     No automatic utilization of translational and rotational invariance of the energy is employed.
 
 Skipping Nuclear Charge Contribution
 
 DFT contribution computed for a moving grid.
 
 RI-ERI gradients!
 
 Wavefunction type: MSPDFT  
 MS-PDFT Functional type:   T:PBE                                                                           
 
 A total of 13025. entities were prescreened and 12983. were kept.
 A total of 255480. entities were prescreened and 200525. were kept.
 
 *****************************************************
 *                                                   *
 *              CI derivative coupling               *
 *                                                   *
 *****************************************************
 
  Irreducible representation: a  
 ------------------------------------------------------------------------------------------
                              X                       Y                       Z
 ------------------------------------------------------------------------------------------
  S1                4.40982785896030E-02   -1.77288626579736E-05    2.93019386088882E-01
  H2               -2.20562654301134E-02    1.89437946577983E-01   -1.46502627520558E-01
  H3               -2.20420131594896E-02   -1.89420217715325E-01   -1.46516758568324E-01
 ------------------------------------------------------------------------------------------
 
 
 ******************************************************
 *                                                    *
 *              CSF derivative coupling               *
 *                                                    *
 ******************************************************
 
  Irreducible representation: a  
 ------------------------------------------------------------------------------------------
                              X                       Y                       Z
 ------------------------------------------------------------------------------------------
  S1               -1.13001807109996E-01   -8.96601738174532E-13   -2.39843784606496E-12
  H2                2.56956697773776E-02   -7.25701773962151E-14   -2.67592118427195E-13
  H3                2.56923955655440E-02   -2.69388756945268E-13   -3.57449582865891E-13
 ------------------------------------------------------------------------------------------
 
               Energy difference: -1.310040E-01
 
 *******************************************************
 *                                                     *
 *              Total derivative coupling              *
 *                                                     *
 *******************************************************
 
  Irreducible representation: a  
 ------------------------------------------------------------------------------------------
                              X                       Y                       Z
 ------------------------------------------------------------------------------------------
  S1               -4.49619731397271E-01    1.35330745308723E-04   -2.23672171966667E+00
  H2                1.94059028259231E-01   -1.44604756461768E+00    1.11830692616236E+00
  H3                1.93946961370966E-01    1.44591223387113E+00    1.11841479350129E+00
 ------------------------------------------------------------------------------------------
 
               norm:       3.4588
--- Stop Module: alaska at Wed Mar 20 14:36:49 2024 /rc=_RC_ALL_IS_WELL_ ---
--- Module alaska spent 2 seconds ---

>>> COPY MOLCAS.2.JobIph JOB001

>>> COPY MOLCAS.JobIph JOB002

*** symbolic link created: INPORB -> MOLCAS.RasOrb
--- Start Module: rassi at Wed Mar 20 14:36:49 2024 ---
 
()()()()()()()()()()()()()()()()()()()()()()()()()()()()()()()()()()()()()()()()()()()()()()()()()()

                                               &RASSI

                                   only a single process is used
                       available to each process: 10 GB of memory, 1 thread?
                                            pid: 1143097
()()()()()()()()()()()()()()()()()()()()()()()()()()()()()()()()()()()()()()()()()()()()()()()()()()
 
 
      ********************************************************************************
      *                                                                              *
      *                             General data section                             *
      *                                                                              *
      ********************************************************************************
 
   Specific data for JOBIPH file 
 JOB001                                                                         
                                                  
   -------------------------------------
 
   Header from SEWARD:
                                                                               
        Integrals generated by Gateway/Seward, Wed Mar 20 14:36:29 2024        
 
   CASSCF title (first line only):
       (No title given)                                                        
 
   STATE IRREP:                             1
   SPIN MULTIPLICITY:                       2
   ACTIVE ELECTRONS:                        7
   MAX RAS1 HOLES:                          0
   MAX RAS3 ELECTRONS:                      0
   NR OF CONFIG:                          210
 
   Specific data for JOBIPH file 
 JOB002                                                                         
                                                  
   -------------------------------------
 
   Header from SEWARD:
                                                                               
        Integrals generated by Gateway/Seward, Wed Mar 20 14:36:29 2024        
 
   CASSCF title (first line only):
       (No title given)                                                        
 
   STATE IRREP:                             1
   SPIN MULTIPLICITY:                       2
   ACTIVE ELECTRONS:                        7
   MAX RAS1 HOLES:                          0
   MAX RAS3 ELECTRONS:                      0
   NR OF CONFIG:                          210
 ###############################################################################
 ###############################################################################
 ###                                                                         ###
 ###                                                                         ###
 ###    WARNING: EJOB used when HEFF is available, possible                  ###
 ###    extra interaction between states is ignored!                         ###
 ###                                                                         ###
 ###                                                                         ###
 ###############################################################################
 ###############################################################################
 ###############################################################################
 ###############################################################################
 ###                                                                         ###
 ###                                                                         ###
 ###    WARNING: EJOB used for a situation where possible extra              ###
 ###    interaction between states is ignored!                               ###
 ###                                                                         ###
 ###                                                                         ###
 ###############################################################################
 ###############################################################################
 
   The following data are common to all the states:
   ------------------------------------------------
   (note: frozen counts as inactive, deleted as secondary)
 
      Nr of irreps: 1
 
                 Total     No./Irrep 
      Irrep                  1
                             a
 
      INACTIVE       5       5
      ACTIVE         6       6
      SECONDARY     17      17
      BASIS         28      28
 
      RAS1           0       0
      RAS2           6       6
      RAS3           0       0
 
        MATRIX ELEMENTS WILL BE COMPUTED FOR THE FOLLOWING ONE-ELECTRON OPERATOR
 S, UNLESS ZERO BY SYMMETRY.
   (Herm=Hermitian, Anti=Antihermitian, Sing=Singlet operator, Trip=Triplet oper
 ator)
     MLTPL  0   1 (HERMSING)     MLTPL  1   1 (HERMSING)     MLTPL  1   2 (HERMSING)
     MLTPL  1   3 (HERMSING)     MLTPL  2   1 (HERMSING)     MLTPL  2   2 (HERMSING)
     MLTPL  2   3 (HERMSING)     MLTPL  2   4 (HERMSING)     MLTPL  2   5 (HERMSING)
     MLTPL  2   6 (HERMSING)     VELOCITY   1 (ANTISING)     VELOCITY   2 (ANTISING)
     VELOCITY   3 (ANTISING)     ANGMOM     1 (ANTISING)     ANGMOM     2 (ANTISING)
     ANGMOM     3 (ANTISING)     MLTPV  2   1 (ANTISING)     MLTPV  2   2 (ANTISING)
     MLTPV  2   3 (ANTISING)     MLTPV  2   4 (ANTISING)     MLTPV  2   5 (ANTISING)
     MLTPV  2   6 (ANTISING)
 
       EIGENSTATES OF A SPIN-FREE HAMILTONIAN WILL BE COMPUTED BASED ON:
 
  a Hamiltonian matrix assumed to be diagonal with energies read from the wavefu
 nction file(s).
 
  Nr of states:                     4
 
   State:        1   2   3   4
  JobIph:        1   1   2   2
 Root nr:        1   2   1   2
 

 MO OVERLAP MATRIX IN ORIGINAL ORBITAL BASES:

 
 SYMMETRY LABELS OF ROWS/COLS: 1 1


               1               2               3               4               5

   1   1.00000000      0.119740857E-08  0.582471947E-09  0.733138418E-09 -0.199188073E-14
   2 -0.119738604E-08   1.00000000      0.140651854E-06  0.712745593E-07 -0.387146916E-12
   3 -0.582384748E-09 -0.140646215E-06  0.999999995     -0.989456497E-04 -0.294096976E-10
   4 -0.733199712E-09 -0.712882459E-07  0.989456498E-04  0.999999995     -0.133185859E-09
   5  0.910165050E-15  0.387053334E-12  0.294231650E-10  0.133183665E-09   1.00000000    
   6 -0.166085080E-07  0.131554736E-05  0.104720542E-05 -0.130384579E-06  0.157911814E-12
   7  0.327468444E-09 -0.179746765E-06 -0.186611390E-06  0.359242824E-06  0.602464959E-12
   8  0.152831752E-08 -0.449612119E-07  0.155480884E-07 -0.127439319E-06 -0.195371522E-12
   9 -0.240870358E-15 -0.647623172E-15 -0.216602754E-15  0.261410468E-17  0.444637527E-07
  10  0.594314576E-10  0.247659878E-08  0.164036587E-07 -0.329340059E-07  0.113661454E-12
  11  0.100019391E-09  0.104627127E-08  0.255147862E-07 -0.101959262E-07 -0.747467542E-16


               6               7               8               9              10

   1  0.166085074E-07 -0.327332096E-09 -0.152831596E-08 -0.985786981E-16 -0.594463334E-10
   2 -0.131554837E-05  0.179738876E-06  0.449670478E-07 -0.175521391E-15 -0.247480057E-08
   3 -0.104721905E-05  0.186642712E-06 -0.155544379E-07 -0.353449482E-15 -0.164059001E-07
   4  0.130282662E-06 -0.359229054E-06  0.127424100E-06 -0.163929754E-15  0.329288569E-07
   5 -0.157134415E-12 -0.603259102E-12  0.195798593E-12 -0.444637717E-07 -0.113697342E-12
   6   1.00000000      0.470243757E-05  0.826221831E-06  0.147262628E-10 -0.482264253E-07
   7 -0.470246905E-05  0.999999999      0.384328098E-04  0.578459127E-12  0.110065769E-04
   8 -0.826043694E-06 -0.384328024E-04  0.999999999     -0.819661508E-11 -0.968313350E-06
   9 -0.147253672E-10 -0.578764744E-12  0.819722016E-11   1.00000000     -0.456405765E-11
  10  0.482141419E-07 -0.110067088E-04  0.967884890E-06  0.456249886E-11  0.999999998    
  11  0.200203314E-05  0.288123467E-06  0.557102684E-06  0.487890655E-11  0.239212203E-04


              11
   1 -0.100036420E-09
   2 -0.104397079E-08
   3 -0.255142585E-07
   4  0.101924546E-07
   5  0.200361922E-15
   6 -0.200202515E-05
   7 -0.288422317E-06
   8 -0.556997614E-06
   9 -0.487820363E-11
  10 -0.239219171E-04
  11  0.999999997    
 
 *******************************************************************************
 *
 
  HAMILTONIAN MATRIX FOR THE ORIGINAL STATES:
 
                   |    1 >          |    2 >          |    3 >          |    4 > 
 <    1 |      -398.80907865       -0.00000000     -398.80907836       -0.00000001
 <    2 |        -0.00000000     -398.67807497       -0.00000001      398.67807422
 <    3 |      -398.80907836       -0.00000001     -398.80907879        0.00000000
 <    4 |        -0.00000001      398.67807422        0.00000000     -398.67807483
 
      OVERLAP MATRIX FOR THE ORIGINAL STATES:
 
      1.00000000
      0.00000000      1.00000000
      1.00000000      0.00000000      1.00000000
      0.00000000     -1.00000000     -0.00000000      1.00000000
 
++ Matrix elements for input states
   --------------------------------
 
  MATRIX ELEMENTS OF 1-ELECTRON OPERATORS
  FOR THE RASSCF INPUT WAVE FUNCTIONS:
 
 
 PROPERTY: MLTPL  0   COMPONENT:*   1
 ORIGIN    :   0.00000000D+00   0.00000000D+00   0.00000000D+00
 STATE     :       1                2                3                4
 
     1         1.00000000     -0.157938414E-15  0.999999999      0.245128170E-10
     2       -0.157938414E-15   1.00000000      0.245123315E-10 -0.999999998    
     3        0.999999999      0.245123315E-10   1.00000000     -0.843579012E-15
     4        0.245128170E-10 -0.999999998     -0.843579012E-15   1.00000000    
 
 
 PROPERTY: MLTPL  1   COMPONENT:*   1
 ORIGIN    :   0.00000000D+00   0.00000000D+00   0.00000000D+00
 STATE     :       1                2                3                4
 
     1        0.199334673E-10 -0.315553348      0.125667064E-11  0.315541401    
     2       -0.315553348     -0.172359627E-11 -0.315547095     -0.758908180E-11
     3        0.125667064E-11 -0.315547095     -0.174205336E-10  0.315535149    
     4        0.315541401     -0.758908180E-11  0.315535149      0.168982886E-10
 
 
 PROPERTY: MLTPL  1   COMPONENT:*   2
 ORIGIN    :   0.00000000D+00   0.00000000D+00   0.00000000D+00
 STATE     :       1                2                3                4
 
     1        0.411814432E-05  0.107962930E-10  0.251077288E-05 -0.691595092E-11
     2        0.107962930E-10  0.369314949E-04  0.583146274E-11 -0.222800281E-04
     3        0.251077288E-05  0.583146274E-11  0.903430552E-06 -0.195097586E-11
     4       -0.691595092E-11 -0.222800281E-04 -0.195097586E-11  0.762740073E-05
 
 
 PROPERTY: MLTPL  1   COMPONENT:*   3
 ORIGIN    :   0.00000000D+00   0.00000000D+00   0.00000000D+00
 STATE     :       1                2                3                4
 
     1         1.02971946      0.136302072E-10   1.02973178      0.140964088E-10
     2        0.136302072E-10   1.01332927      0.277454157E-10  -1.01336762    
     3         1.02973178      0.277454157E-10   1.02974411     -0.215829416E-13
     4        0.140964088E-10  -1.01336762     -0.215829416E-13   1.01340598    
 
 
 PROPERTY: MLTPL  2   COMPONENT:*   1
 ORIGIN    :   0.00000000D+00   0.00000000D+00   0.13406721D+00
 STATE     :       1                2                3                4
 
     1        -8.65633753     -0.612839013E-11  -8.65634771     -0.206118601E-09
     2       -0.612839013E-11  -10.5295299     -0.263030195E-09   10.5295407    
     3        -8.65634771     -0.263030195E-09  -8.65635790      0.507881468E-10
     4       -0.206118601E-09   10.5295407      0.507881468E-10  -10.5295515    
 
 
 PROPERTY: MLTPL  2   COMPONENT:*   2
 ORIGIN    :   0.00000000D+00   0.00000000D+00   0.13406721D+00
 STATE     :       1                2                3                4
 
     1        0.501512056E-11  0.361355545E-04  0.210386761E-11 -0.804709023E-05
     2        0.361355545E-04 -0.194547044E-10  0.355408884E-04  0.112462079E-10
     3        0.210386761E-11  0.355408884E-04 -0.807392169E-12 -0.745217499E-05
     4       -0.804709023E-05  0.112462079E-10 -0.745217499E-05 -0.303713124E-11
 
 
 PROPERTY: MLTPL  2   COMPONENT:*   3
 ORIGIN    :   0.00000000D+00   0.00000000D+00   0.13406721D+00
 STATE     :       1                2                3                4
 
     1        0.479431050E-11  0.827088453      0.246933176E-10 -0.827092298    
     2        0.827088453     -0.433527750E-12  0.827089237      0.227919289E-10
     3        0.246933176E-10  0.827089237      0.445908408E-10 -0.827093083    
     4       -0.827092298      0.227919289E-10 -0.827093083     -0.451514902E-10
 
 
 PROPERTY: MLTPL  2   COMPONENT:*   4
 ORIGIN    :   0.00000000D+00   0.00000000D+00   0.13406721D+00
 STATE     :       1                2                3                4
 
     1        -7.10180346      0.589991505E-11  -7.10179444     -0.175913507E-09
     2        0.589991505E-11  -6.66790696     -0.157708792E-09   6.66787872    
     3        -7.10179444     -0.157708792E-09  -7.10178544     -0.123030089E-10
     4       -0.175913507E-09   6.66787872     -0.123030089E-10  -6.66785051    
 
 
 PROPERTY: MLTPL  2   COMPONENT:*   5
 ORIGIN    :   0.00000000D+00   0.00000000D+00   0.13406721D+00
 STATE     :       1                2                3                4
 
     1        0.122515353E-04  0.308300282E-10  0.762140115E-05 -0.147028456E-10
     2        0.308300282E-10  0.150094295E-03  0.204589433E-10 -0.906381925E-04
     3        0.762140115E-05  0.204589433E-10  0.299162675E-05 -0.433035145E-11
     4       -0.147028456E-10 -0.906381925E-04 -0.433035145E-11  0.311808783E-04
 
 
 PROPERTY: MLTPL  2   COMPONENT:*   6
 ORIGIN    :   0.00000000D+00   0.00000000D+00   0.13406721D+00
 STATE     :       1                2                3                4
 
     1        -6.55362810      0.908896650E-11  -6.55358991     -0.167167193E-09
     2        0.908896650E-11  -4.60120684     -0.104598624E-09   4.60114435    
     3        -6.55358991     -0.104598624E-09  -6.55355173     -0.534795516E-10
     4       -0.167167193E-09   4.60114435     -0.534795516E-10  -4.60108187    
 
 
 PROPERTY: VELOCITY   COMPONENT:*   1
 ORIGIN    :   0.00000000D+00   0.00000000D+00   0.00000000D+00
 STATE     :       1                2                3                4
 
     1       -0.158735411E-26  0.616183924E-01  0.577479268E-11 -0.616121395E-01
     2       -0.616183924E-01  0.813637877E-27 -0.616195936E-01  0.423784321E-12
     3       -0.577479268E-11  0.616195936E-01  0.128900206E-26 -0.616133406E-01
     4        0.616121395E-01 -0.423784321E-12  0.616133406E-01  0.324575510E-27
 
 
 PROPERTY: VELOCITY   COMPONENT:*   2
 ORIGIN    :   0.00000000D+00   0.00000000D+00   0.00000000D+00
 STATE     :       1                2                3                4
 
     1       -0.192872499E-16  0.260565228E-12  0.505058827E-06 -0.151643620E-11
     2       -0.260565228E-12  0.205311936E-17  0.149953097E-11 -0.294714370E-05
     3       -0.505058827E-06 -0.149953097E-11  0.147180942E-16  0.243312824E-12
     4        0.151643620E-11  0.294714370E-05 -0.243312824E-12 -0.117009238E-16
 
 
 PROPERTY: VELOCITY   COMPONENT:*   3
 ORIGIN    :   0.00000000D+00   0.00000000D+00   0.00000000D+00
 STATE     :       1                2                3                4
 
     1       -0.370460222E-16  0.354362640E-11 -0.783190738E-05 -0.483761367E-11
     2       -0.354362640E-11 -0.804159025E-17  0.155890024E-11  0.189317560E-04
     3        0.783190738E-05 -0.155890024E-11 -0.394935376E-17  0.265055248E-12
     4        0.483761367E-11 -0.189317560E-04 -0.265055248E-12 -0.995832435E-16
 
 
 PROPERTY: ANGMOM     COMPONENT:*   1
 ORIGIN    :   0.00000000D+00   0.00000000D+00   0.00000000D+00
 STATE     :       1                2                3                4
 
     1       -0.972964952E-16 -0.659182046E-11 -0.982905570E-06  0.448397466E-11
     2        0.659182046E-11 -0.640598131E-16  0.238218496E-11  0.330621467E-04
     3        0.982905570E-06 -0.238218496E-11  0.104025421E-15  0.275279210E-12
     4       -0.448397466E-11 -0.330621467E-04 -0.275279210E-12  0.769095483E-16
 
 
 PROPERTY: ANGMOM     COMPONENT:*   2
 ORIGIN    :   0.00000000D+00   0.00000000D+00   0.00000000D+00
 STATE     :       1                2                3                4
 
     1        0.220545610E-26  0.888930268      0.218582582E-10 -0.888930390    
     2       -0.888930268      0.202438604E-26 -0.888932021     -0.272124013E-10
     3       -0.218582582E-10  0.888932021     -0.204015897E-26 -0.888932143    
     4        0.888930390      0.272124013E-10  0.888932143      0.187202449E-26
 
 
 PROPERTY: ANGMOM     COMPONENT:*   3
 ORIGIN    :   0.00000000D+00   0.00000000D+00   0.00000000D+00
 STATE     :       1                2                3                4
 
     1       -0.683371733E-25 -0.426984510E-04  0.127946700E-11  0.968642268E-05
     2        0.426984510E-04 -0.642923898E-25  0.415942239E-04 -0.856081485E-11
     3       -0.127946700E-11 -0.415942239E-04  0.130087191E-26  0.858195125E-05
     4       -0.968642268E-05  0.856081485E-11 -0.858195125E-05  0.128240236E-26
 
 
 PROPERTY: MLTPV  2   COMPONENT:*   1
 ORIGIN    :   0.00000000D+00   0.00000000D+00   0.13406721D+00
 STATE     :       1                2                3                4
 
     1       -0.145695542E-15  0.605518204E-12 -0.851990650E-05  0.170119301E-11
     2       -0.605518204E-12  0.315770149E-16 -0.221067577E-11 -0.258914200E-06
     3        0.851990650E-05  0.221067577E-11  0.122505336E-15  0.961018092E-13
     4       -0.170119301E-11  0.258914200E-06 -0.961018092E-13  0.196724833E-15
 
 
 PROPERTY: MLTPV  2   COMPONENT:*   2
 ORIGIN    :   0.00000000D+00   0.00000000D+00   0.13406721D+00
 STATE     :       1                2                3                4
 
     1       -0.922435680E-28  0.375050964E-05 -0.359115474E-12 -0.947178364E-06
     2       -0.375050964E-05 -0.358243715E-27 -0.357213864E-05 -0.969431988E-12
     3        0.359115474E-12  0.357213864E-05 -0.134521384E-27 -0.768862873E-06
     4        0.947178364E-06  0.969431988E-12  0.768862873E-06 -0.111138035E-27
 
 
 PROPERTY: MLTPV  2   COMPONENT:*   3
 ORIGIN    :   0.00000000D+00   0.00000000D+00   0.13406721D+00
 STATE     :       1                2                3                4
 
     1       -0.188344454E-27  0.733579228E-01  0.196881559E-11 -0.733591312E-01
     2       -0.733579228E-01  0.851483921E-28 -0.733568881E-01 -0.177829530E-11
     3       -0.196881559E-11  0.733568881E-01 -0.489969612E-27 -0.733580966E-01
     4        0.733591312E-01  0.177829530E-11  0.733580966E-01  0.797984679E-27
 
 
 PROPERTY: MLTPV  2   COMPONENT:*   4
 ORIGIN    :   0.00000000D+00   0.00000000D+00   0.13406721D+00
 STATE     :       1                2                3                4
 
     1       -0.182821558E-15  0.139246233E-11  0.721730852E-05  0.278536701E-11
     2       -0.139246233E-11  0.947206420E-16 -0.436650395E-11 -0.263089876E-04
     3       -0.721730852E-05  0.436650395E-11  0.120438254E-15 -0.189039739E-12
     4       -0.278536701E-11  0.263089876E-04  0.189039739E-12  0.338617750E-15
 
 
 PROPERTY: MLTPV  2   COMPONENT:*   5
 ORIGIN    :   0.00000000D+00   0.00000000D+00   0.13406721D+00
 STATE     :       1                2                3                4
 
     1       -0.411169174E-16  0.472871721E-11 -0.232748833E-05  0.241558373E-11
     2       -0.472871721E-11 -0.829480269E-16 -0.800777913E-11  0.604965249E-05
     3        0.232748833E-05  0.800777913E-11  0.416421884E-16 -0.863129609E-12
     4       -0.241558373E-11 -0.604965249E-05  0.863129609E-12  0.726046074E-16
 
 
 PROPERTY: MLTPV  2   COMPONENT:*   6
 ORIGIN    :   0.00000000D+00   0.00000000D+00   0.13406721D+00
 STATE     :       1                2                3                4
 
     1       -0.241142942E-15  0.107781931E-11  0.163721147E-04  0.321448222E-11
     2       -0.107781931E-11  0.124121194E-15 -0.434778640E-11 -0.387991649E-04
     3       -0.163721147E-04  0.434778640E-11  0.128359494E-15 -0.564280783E-13
     4       -0.321448222E-11  0.387991649E-04  0.564280783E-13  0.398424112E-15
 
--
 
::    RASSI State    1     Total energy:    -398.81283711940478
::    RASSI State    2     Total energy:    -398.68029472167461
::    RASSI State    3     Total energy:    -398.80837441078819
::    RASSI State    4     Total energy:    -398.67745673928931
 
 
 
      ****************************************************************************************************
      *                                                                                                  *
      *                                         Spin-free section                                        *
      *                                                                                                  *
      *                 Note: index according to input order, order according to energy.                 *
      *                                                                                                  *
      ****************************************************************************************************
 
 
 
  SPIN-FREE ENERGIES:
  (Shifted by EMIN (a.u.) =       -398.8128371194)
 
 SF State       Relative EMIN(au)   Rel lowest level(eV)    D:o, cm**(-1)
 
     1             0.0000000000        0.0000000000              0.0000
     3             0.0044627086        0.1214364879            979.4513
     2             0.1325423977        3.6066623786          29089.6939
     4             0.1353803801        3.6838878135          29712.5590
 
   Spin-free eigenstates in basis of input states:
   -----------------------------------------------
 
     Eigenstate No.    1 energy=   -398.8128371194
 121716.322127 3************                                                    
                      
 
     Eigenstate No.    3 energy=   -398.8083744108
 1-9401.370964 3 9400.453260                                                    
                      
 
     Eigenstate No.    2 energy=   -398.6802947217
 215068.715219 415068.248509                                                    
                      
 
     Eigenstate No.    4 energy=   -398.6774567393
 2 7951.309118 4 7952.193529                                                    
                      
 
 
++ Dipole transition strengths (spin-free states):
   -----------------------------------------------
     for osc. strength at least  1.00000000E-05
 
      From   To        Osc. strength     Einstein coefficients Ax, Ay, Az (sec-1)    Total A (sec-1)
     -----------------------------------------------------------------------------------------------
         1    3       5.40783438E-04  2.67691929E-05  1.94599722E+00  3.44097980E+02  3.46044004E+02
         1    2       2.50186269E-03  1.41216014E+06  1.51165141E-01  8.04468711E-03  1.41216030E+06
         1    4       5.35292348E-04  3.15216160E+05  7.10772409E-01  2.84746999E+00  3.15219719E+05
         3    2       1.57499290E-02  8.30137415E+06  6.12837213E-02  4.36638336E-01  8.30137464E+06
         3    4       2.44112453E-03  1.34430234E+06  1.62061785E-01  1.10396323E+00  1.34430361E+06
         2    4       3.57166424E-04  1.27476809E-06  3.83749701E+01  5.40524636E+01  9.24274350E+01
     -----------------------------------------------------------------------------------------------
--
 
++ Velocity transition strengths (spin-free states):
   -------------------------------------------------
     for osc. strength at least  1.00000000E-05
 
      From   To        Osc. strength     Einstein coefficients Ax, Ay, Az (sec-1)    Total A (sec-1)
     -----------------------------------------------------------------------------------------------
         1    3       5.15256570E+00  1.23979956E-01  1.36545723E+04  3.28344048E+06  3.29709518E+06
         1    2       5.18019603E-02  2.92392818E+07  9.31786034E-02  1.45587327E+00  2.92392834E+07
         1    4       6.44321448E-05  3.79131473E+04  6.01151923E-01  2.86631128E+01  3.79424116E+04
         3    2       4.22325551E-02  2.22596587E+07  1.13817712E-01  1.37004489E+01  2.22596725E+07
         3    4       6.72677662E-05  3.70431688E+04  5.50279429E-02  4.82677973E-01  3.70437065E+04
         2    4       2.50329069E+01  5.07379120E-03  1.53272148E+05  6.32473703E+06  6.47800919E+06
     -----------------------------------------------------------------------------------------------
--
 
++ Length and velocity gauge comparison (spin-free states):
   --------------------------------------------------------
 
 --------------------------------------------------
 A comparison between the dipole oscillator strengths in 
 length and velocity gauge will be performed
 
     All dipole oscillator differences above the tolerance of   1.00000000E-01  will be printed 
 
 Due to basis set deficiency these oscillator may be problematic 
 
 The tolerance is defined as ABS(1-O_l/O_v) 
 O_l : dipole oscillator strength in length gauge
 O_p : dipole oscillator strength in velocity gauge
 --------------------------------------------------
 
  Problematic transitions have been found
 
      From   To       Difference (%) Osc. st. (len.) Osc. st. (vel.)
     ---------------------------------------------------------------
         1    3            99.989505  5.40783438E-04  5.15256570E+00
         1    2            95.170332  2.50186269E-03  5.18019603E-02
         1    4           730.784617  5.35292348E-04  6.44321448E-05
         3    2            62.706663  1.57499290E-02  4.22325551E-02
         3    4          3528.966251  2.44112453E-03  6.72677662E-05
         2    4            99.998573  3.57166424E-04  2.50329069E+01
     ---------------------------------------------------------------
 
 Number of problematic transitions =                      6
 
--
 
 Electric-dipole - electric-octupole not included
 Electric-dipole - magnetic-quadrupole not included
 
 
      ****************************************************************************************************
      *                                                                                                  *
      *                                    Special properties section                                    *
      *                                                                                                  *
      ****************************************************************************************************
 
 
++ I/O STATISTICS
 
  I. General I/O information
  - - - - - - - - - - - - - - - - - - - - - - - - - - - - - - - - - - - - - - - - - - -
  Unit  Name          Flsize      Write/Read            MBytes           Write/Read
                      (MBytes)       Calls              In/Out           Time, sec.
  - - - - - - - - - - - - - - - - - - - - - - - - - - - - - - - - - - - - - - - - - - -
   1  ANNI              0.00 .       0/       0 .      0.0/      0.0 .       0/       0
   2  RUNFILE           0.39 .     161/    1497 .      1.1/     10.8 .       0/       0
   3  ONEINT            1.46 .       0/     716 .      0.0/    656.2 .       0/       0
   4  JOB001            1.18 .       0/      45 .      0.0/      1.1 .       0/       0
   5  JOB002            1.14 .       0/      45 .      0.0/      1.1 .       0/       0
  - - - - - - - - - - - - - - - - - - - - - - - - - - - - - - - - - - - - - - - - - - -
   *  TOTAL             4.18 .     161/    2303 .      1.1/    669.2 .       0/       0
  - - - - - - - - - - - - - - - - - - - - - - - - - - - - - - - - - - - - - - - - - - -
 
  II. I/O Access Patterns
  - - - - - - - - - - - - - - - - - - - -
  Unit  Name               % of random
                         Write/Read calls
  - - - - - - - - - - - - - - - - - - - -
   1  ANNI                 0.0/   0.0
   2  RUNFILE             28.6/  10.7
   3  ONEINT               0.0/  98.2
   4  JOB001               0.0/  77.8
   5  JOB002               0.0/  77.8
  - - - - - - - - - - - - - - - - - - - -
--
--- Stop Module: rassi at Wed Mar 20 14:36:50 2024 /rc=_RC_ALL_IS_WELL_ ---
--- Module rassi spent 1 second ---

.##################.
.# Happy landing! #.
.##################.

    Timing: Wall=8.22 User=7.15 System=0.89
