   This run of MOLCAS is using the pymolcas driver

                             OPE
                             OPE          NMOL  CASOP  ENMOLC A   SO
                 OPE        NMOLC        AS  OP EN  MO LC     AS  OP
                OPENM       OL CA        SO  PE NM  OL CA     SOP EN
                OP EN      MO   LC       AS  OP ENMOL  CASO   PENMOL
                OP  EN     MO   LC       AS  OP EN     MO     LC ASO
               OP   E  NMOL  C  AS       OP  EN MO     LC     AS  OP
               OP  E   NMO   LC AS        OPEN  MO     LCASOP EN   M
               O  PEN   MO  LCA  SO
            OPE   NMO   L   CAS    OP
        OPENMOL  CASOP     ENMOL   CASOPE
     OPENMOLCA   SOPENMOLCASOPEN   MOLCASOPE
    OPENMOLCAS   OP           EN   MOL    CAS
    OPENMOLCAS       OP  ENM        O     LCA
    OPENMOLCAS    OPEN  MOLCASO     P  E  NMO
    OPENMOLCAS     OP               E  N  MOL
    OPENMOLCA   SO           PENM   O  L  CAS    OPEN    MO    LCAS
    OPENMOLCA   SOP           ENM   O  L  CAS   OP  EN  MOLC  AS   O
    OPENMOLCA   SOPE           NM      O  LCA   S      OP  EN MO
    OPENMOLC                AS         O  PEN   M      OL  CA  SOPE
    OPENMO        LCASOPE  NMOL        C  ASO   P      ENMOLC     AS
    OPE     NMO      LCA  SO     P     E   NM   OL  CA SO  PE N   MO
          OPENMOLCA            SOPE   NMO        LCAS  O    P  ENMO
     OPENMOLCASOPENMOLCASOPENMOLCASOPENMOLCA
        OPENMOLCASOPENMOLCASOPENMOLCASOPE
            OPENMOLCASOPENMOLCASOPENM
               OPENMOLCASOPENMOLCA        version: v23.10
                   OPENMOLCASO
                       OPE                tag:

 OpenMolcas is free software; you can redistribute it and/or modify it
 under the terms of the GNU Lesser General Public License version 2.1.
 OpenMolcas is distributed in the hope that it will be useful, but it
 is provided "as is" and without any express or implied warranties.
 For more details see the full text of the license in the file
 LICENSE or in <http://www.gnu.org/licenses/>.

                 Copyright (C) The OpenMolcas Authors
           For the author list and the recommended citation,
                   consult the file CONTRIBUTORS.md

           *************************************************
           * pymolcas version py2.25                       *
           *   build 2b27fa14244bdc32cb1957e6230cd793      *
           *   (after the EMIL interpreter by V. Veryazov) *
           *************************************************

configuration info
------------------
Host name: manganese.itc.univie.ac.at (Linux)
C Compiler ID: Clang
C flags: -std=gnu99
Fortran Compiler ID: Intel
Fortran flags: -fpp -i8 -heap-arrays
Definitions: _MOLCAS_;_I8_;_LINUX_
Parallel: OFF (GA=OFF)


   -----------------------------------------------------------------------------
  |
  |           Project: MOLCAS
  |    Submitted from: /public/manganese/scratch/tmp/sascha.925337/WORK/grad_1_1
  |      Scratch area: /public/manganese/scratch/tmp/sascha.925337/WORK/grad_1_1
  |   Save outputs to: WORKDIR
  |            Molcas: /usr/license/openmolcas/v23.10
  |
  | Scratch area is NOT empty
  |
  |        MOLCASMEM = 10000
  |    MOLCAS_DRIVER = /usr/license/openmolcas/v23.10/pymolcas
  |    MOLCAS_NPROCS = 1
  |    MOLCAS_SOURCE = /usr/license/openmolcas/v23.10
  | MOLCAS_STRUCTURE = 0
  |
   -----------------------------------------------------------------------------

++ ---------   Input file   ---------

>>> COPY $master_path/MOLCAS.1.JobIph JOBOLD

&RASSCF
SPIN=1
NACTEL=8 0 0
INACTIVE=5
RAS2=6
ITERATIONS=200,100
CIROOT=4 4 1
THRS=1.0e-10 1.0e-06 1.0e-06
JOBIPH

&CASPT2
SHIFT=0.0
IMAGINARY= 0.000
IPEASHIFT= 0.00
MAXITER=120
XMULTISTATE= 4 1 2 3 4
OUTPUT=BRIEF
PRWF=0.1
GRDT
rlxroot = 1

&MCLR
THRESHOLD=0.0001

&ALASKA

-- ----------------------------------

>>> COPY /public/manganese/scratch/tmp/sascha.925337/WORK/master/MOLCAS.1.JobIph JOBOLD

--- Start Module: rasscf at Wed Mar 20 15:35:48 2024 ---
 
()()()()()()()()()()()()()()()()()()()()()()()()()()()()()()()()()()()()()()()()()()()()()()()()()()

                                              &RASSCF

                                   only a single process is used
                       available to each process: 10 GB of memory, 1 thread?
                                            pid: 1177514
()()()()()()()()()()()()()()()()()()()()()()()()()()()()()()()()()()()()()()()()()()()()()()()()()()
 
 
      Header of the ONEINT file:
      --------------------------
      
      Integrals generated by Gateway/Seward, Wed Mar 20 15:35:38 2024
 
 
      OrdInt status: non-squared
 
 
      Cartesian coordinates in Angstrom:
      -----------------------------------------------------
      No.  Label        X            Y            Z        
      -----------------------------------------------------
       1   S1         0.00000000   0.00000000   0.00084100
       2   H2         0.00000000   0.97479900   1.18293400
       3   H3         0.00000000  -0.97479900   1.18293400
      -----------------------------------------------------
      Nuclear repulsion energy =   11.32343694
 
++    Wave function specifications:
      -----------------------------
 
      Number of closed shell electrons          10
      Number of electrons in active shells       8
      Max number of holes in RAS1 space          0
      Max nr of electrons in RAS3 space          0
      Number of inactive orbitals                5
      Number of active orbitals                  6
      Number of secondary orbitals              17
      Spin quantum number                      0.0
      State symmetry                             1
--
 
++    Orbital specifications:
      -----------------------
 
      Symmetry species                           1
                                                 a
      Frozen orbitals                            0
      Inactive orbitals                          5
      Active orbitals                            6
      RAS1 orbitals                              0
      RAS2 orbitals                              6
      RAS3 orbitals                              0
      Secondary orbitals                        17
      Deleted orbitals                           0
      Number of basis functions                 28
--
 
++    CI expansion specifications:
      ----------------------------
 
      Number of CSFs                           105
      Number of determinants                   120
      Number of root(s) required                 4
      Root chosen for geometry opt.              4
      CI roots used                              1     2     3     4
      weights                                0.250 0.250 0.250 0.250
      highest root included in the CI            4
      max. size of the explicit Hamiltonian    105
--
 
++    Optimization specifications:
      ----------------------------
 
      RASSCF algorithm: LK RI/DF
      Maximum number of macro iterations       200
      Maximum number of SX iterations          100
      Threshold for RASSCF energy            0.100E-09
      Threshold for max MO rotation          0.100E-05
      Threshold for max BLB element          0.100E-05
      Level shift parameter                  0.500E+00
      Make Quasi-Newton update
--
 
      The MO-coefficients are taken from the file:
      JOBOLD
      Title:(No title given)                                                        
 
      Total molecular charge    0.00
 
      ************************************************************************************************************************
      *                                                                                                                      *
      *                                            Wave function control section                                             *
      *                                                                                                                      *
      ************************************************************************************************************************
 
 
                                         RASSCF iterations: Energy and convergence statistics
                                         ----------------------------------------------------
 
      Iter CI   SX   CI       RASSCF       Energy    max ROT     max BLB   max BLB  Level Ln srch  Step   QN   Walltime
          iter iter root      energy       change     param      element    value   shift minimum  type update hh:mm:ss
 Nr of preliminary CI iterations:   1
        1   1    2    0  -398.50839001    0.00E+00   0.66E-06    3  17 1 -0.11E-06   0.00   0.00    SX    NO    0:00:00
        2   1    1    0  -398.50839001   -0.18E-11   0.00E+00    4  10 1 -0.12E-07   0.00   0.00    SX    NO    0:00:00
        3   1    1    0  -398.50839001    0.13E-11   0.00E+00    4  10 1 -0.12E-07   0.00   0.00    SX    NO    0:00:00
        4   1    1    0  -398.50839001   -0.21E-11   0.00E+00    4  10 1 -0.12E-07   0.00   0.00    SX    NO    0:00:00
      Convergence after  4 iterations
        5   1    1    0  -398.50839001    0.23E-12   0.00E+00    4  10 1 -0.12E-07   0.00   0.00    SX    NO    0:00:00
 
      ************************************************************************************************************************
                                                      Wave function printout:
                       occupation of active orbitals, and spin coupling of open shells (u,d: Spin up or down)
      ************************************************************************************************************************
 
      Note: transformation to natural orbitals
      has been made, which may change the order of the CSFs.
 
      printout of CI-coefficients larger than  0.05 for root  1
      energy=    -398.693733
      conf/sym  111111     Coeff  Weight
             1  222200  -0.96870 0.93838
            17  2u220d  -0.13604 0.01851
            31  220220   0.13389 0.01793
            52  202202   0.12141 0.01474
 
      printout of CI-coefficients larger than  0.05 for root  2
      energy=    -398.508671
      conf/sym  111111     Coeff  Weight
             2  222ud0   0.60388 0.36467
             4  222u0d  -0.76382 0.58342
             8  22ud20   0.12018 0.01444
            19  2u2udd   0.06213 0.00386
            21  2u2d02   0.11257 0.01267
            33  220u2d  -0.09348 0.00874
            53  202ud2  -0.05907 0.00349
 
      printout of CI-coefficients larger than  0.05 for root  3
      energy=    -398.476527
      conf/sym  111111     Coeff  Weight
             2  222ud0  -0.74141 0.54969
             4  222u0d  -0.60282 0.36339
             8  22ud20  -0.18595 0.03458
            19  2u2udd  -0.07143 0.00510
            21  2u2d02   0.12500 0.01563
            33  220u2d  -0.09777 0.00956
            53  202ud2   0.10931 0.01195
 
      printout of CI-coefficients larger than  0.05 for root  4
      energy=    -398.354629
      conf/sym  111111     Coeff  Weight
             5  2220ud   0.06409 0.00411
             7  22u2d0   0.05609 0.00315
             9  22u20d   0.93679 0.87757
            15  2u22d0  -0.19254 0.03707
            32  2202ud  -0.16686 0.02784
            40  2ud202  -0.13240 0.01753
            44  u2d2ud  -0.08910 0.00794
 
      Natural orbitals and occupation numbers for root  1
      sym 1:   1.997120   1.962308   1.957111   1.998601   0.052236   0.032623
 
      Natural orbitals and occupation numbers for root  2
      sym 1:   1.998868   1.985146   1.958273   1.000000   0.058606   0.999107
 
      Natural orbitals and occupation numbers for root  3
      sym 1:   1.998722   1.970581   1.936112   1.000000   0.991928   0.102656
 
      Natural orbitals and occupation numbers for root  4
      sym 1:   1.984986   1.943114   1.052034   1.986546   0.079947   0.953372
 
      ************************************************************************************************************************
      *                                                                                                                      *
      *                                                    Final results                                                     *
      *                                                                                                                      *
      ************************************************************************************************************************
 
 
++    Wave function specifications:
      -----------------------------
 
      Number of closed shell electrons          10
      Number of electrons in active shells       8
      Max number of holes in RAS1 space          0
      Max nr of electrons in RAS3 space          0
      Number of inactive orbitals                5
      Number of active orbitals                  6
      Number of secondary orbitals              17
      Spin quantum number                      0.0
      State symmetry                             1
--
 
++    Orbital specifications:
      -----------------------
 
      Symmetry species                           1
                                                 a
      Frozen orbitals                            0
      Inactive orbitals                          5
      Active orbitals                            6
      RAS1 orbitals                              0
      RAS2 orbitals                              6
      RAS3 orbitals                              0
      Secondary orbitals                        17
      Deleted orbitals                           0
      Number of basis functions                 28
--
 
++    CI expansion specifications:
      ----------------------------
 
      Number of CSFs                           105
      Number of determinants                   120
      Number of root(s) required                 4
      CI roots used                              1     2     3     4
      weights                                0.250 0.250 0.250 0.250
      highest root included in the CI            4
      Root passed to geometry opt.               4
--
 
++    Final optimization conditions:
      ------------------------------
 
      Average CI energy                            -398.50839001
      RASSCF energy for state  4                   -398.35462864
      Super-CI energy                                 0.00000000
      RASSCF energy change                            0.00000000
      Max change in MO coefficients               0.000E+00
      Max non-diagonal density matrix element     0.000E+00
      Maximum BLB matrix element                 -0.116E-07
      (orbital pair   4,  10 in symmetry   1)
      Norm of electronic gradient            0.843E-01
--
 
 
      Final state energy(ies):
      ------------------------
 
::    RASSCF root number  1 Total energy:   -398.69373311
::    RASSCF root number  2 Total energy:   -398.50867090
::    RASSCF root number  3 Total energy:   -398.47652739
::    RASSCF root number  4 Total energy:   -398.35462864
 
++    Molecular orbitals:
      -------------------
 
      Pseudonatural active orbitals and approximate occupation numbers
 
 
 
 
      Molecular orbitals for symmetry species 1: a  
 
 
      Orbital                 1         2         3         4         5         6         7         8         9        10
      Energy           -92.0114   -9.0113   -6.6909   -6.6899   -6.6895   -0.9540    0.0080   -0.0000   -0.0005    0.0024
      Occ. No.           2.0000    2.0000    2.0000    2.0000    2.0000    1.9906    1.9503    1.7207    1.4963    0.3132
 
     1 S1     1s         1.0000    0.0002    0.0000    0.0000    0.0000    0.0008    0.0012    0.0010   -0.0000    0.0029
     2 S1     2s         0.0001    1.0012   -0.0021   -0.0019   -0.0000    0.0070    0.0043    0.0027   -0.0000    0.0119
     3 S1     3s         0.0003    0.0007    0.0022    0.0023    0.0000    0.9496   -0.1378   -0.2347   -0.0000   -0.2362
     4 S1     *s        -0.0002   -0.0050   -0.0012   -0.0010   -0.0000   -0.0374   -0.0796   -0.0885    0.0000   -0.3664
     5 S1     2px       -0.0000    0.0000    0.0000   -0.0000    1.0000   -0.0000    0.0000    0.0000   -0.0027    0.0000
     6 S1     3px       -0.0000    0.0000    0.0000    0.0000    0.0001   -0.0000    0.0000   -0.0000    0.9753    0.0000
     7 S1     *px        0.0000   -0.0000    0.0000   -0.0000    0.0004    0.0000   -0.0000    0.0000    0.0232   -0.0000
     8 S1     2py       -0.0000    0.0000   -0.6707    0.7417    0.0000    0.0002   -0.0050    0.0047    0.0000    0.0081
     9 S1     3py       -0.0000    0.0006   -0.0012    0.0006   -0.0000   -0.0231    0.5736   -0.4773    0.0000    0.5492
    10 S1     *py        0.0000   -0.0001    0.0007    0.0001    0.0000    0.0017   -0.0639    0.0629   -0.0000    0.1586
    11 S1     2pz        0.0000    0.0035    0.7418    0.6706    0.0000   -0.0051   -0.0056   -0.0064   -0.0000   -0.0109
    12 S1     3pz        0.0000    0.0025    0.0015    0.0007   -0.0000    0.0692    0.5189    0.5594   -0.0000   -0.5309
    13 S1     *pz       -0.0001   -0.0031   -0.0008    0.0001   -0.0000   -0.0273   -0.0431   -0.0552    0.0000   -0.1904
    14 S1     *d2-       0.0000   -0.0000    0.0000    0.0000    0.0000    0.0000   -0.0000    0.0000   -0.0014   -0.0000
    15 S1     *d1-      -0.0000   -0.0000   -0.0003    0.0003   -0.0000   -0.0036    0.0457   -0.0412    0.0000   -0.0873
    16 S1     *d0       -0.0000    0.0001    0.0003    0.0002    0.0000    0.0068    0.0207    0.0226   -0.0000    0.0144
    17 S1     *d1+       0.0000   -0.0000   -0.0000    0.0000    0.0002   -0.0000    0.0000   -0.0000    0.0147   -0.0000
    18 S1     *d2+      -0.0000   -0.0001   -0.0001   -0.0001   -0.0000   -0.0066   -0.0101   -0.0138    0.0000   -0.0076
    19 H2     1s         0.0000    0.0000    0.0005    0.0016    0.0000    0.1729    0.5709   -0.0128    0.0000   -0.0991
    20 H2     *s         0.0001    0.0020   -0.0002   -0.0006    0.0000   -0.0866   -0.1219   -0.0139   -0.0000    0.1224
    21 H2     *px       -0.0000   -0.0000    0.0000   -0.0000   -0.0000    0.0000   -0.0000   -0.0000    0.0111   -0.0000
    22 H2     *py        0.0000    0.0004   -0.0000   -0.0001    0.0000   -0.0114   -0.0164   -0.0072   -0.0000    0.0094
    23 H2     *pz        0.0000    0.0004   -0.0001   -0.0001    0.0000   -0.0123   -0.0189    0.0069   -0.0000    0.0039
    24 H3     1s         0.0000   -0.0008    0.0013    0.0004    0.0000    0.2177   -0.0745    0.6235   -0.0000    0.8140
    25 H3     *s         0.0001    0.0021   -0.0003   -0.0002    0.0000   -0.0973   -0.0031   -0.1291    0.0000    0.4556
    26 H3     *px       -0.0000    0.0000   -0.0000    0.0000    0.0000    0.0000    0.0000    0.0000    0.0148    0.0000
    27 H3     *py       -0.0000   -0.0004    0.0000    0.0000    0.0000    0.0122    0.0085    0.0167   -0.0000   -0.0057
    28 H3     *pz        0.0000    0.0005   -0.0001   -0.0000    0.0000   -0.0142    0.0095   -0.0187    0.0000    0.0133
 
 
      Orbital                11
      Energy             0.0089
      Occ. No.           0.5289
 
     1 S1     1s         0.0041
     2 S1     2s         0.0207
     3 S1     3s        -0.2205
     4 S1     *s        -0.4270
     5 S1     2px       -0.0000
     6 S1     3px       -0.0000
     7 S1     *px        0.0000
     8 S1     2py       -0.0042
     9 S1     3py       -0.4808
    10 S1     *py       -0.2187
    11 S1     2pz       -0.0082
    12 S1     3pz       -0.4736
    13 S1     *pz       -0.2412
    14 S1     *d2-      -0.0000
    15 S1     *d1-       0.0760
    16 S1     *d0        0.0101
    17 S1     *d1+       0.0000
    18 S1     *d2+      -0.0205
    19 H2     1s         0.7287
    20 H2     *s         0.6207
    21 H2     *px       -0.0000
    22 H2     *py        0.0068
    23 H2     *pz        0.0157
    24 H3     1s        -0.0853
    25 H3     *s         0.1027
    26 H3     *px        0.0000
    27 H3     *py       -0.0072
    28 H3     *pz        0.0014
--
 
      Von Neumann Entropy (Root   1) =  0.29483
 

      Mulliken population analysis for root number:  1
      -----------------------------------------------
 
 
++    Molecular charges:
      ------------------
 
      Mulliken charges per centre and basis function type
      ---------------------------------------------------
 
                S1      H2      H3    
      1s       2.0000  1.0858  1.1335
      2s       2.0024  0.0000  0.0000
      2px      1.9999  0.0000  0.0000
      2pz      2.0000  0.0000  0.0000
      2py      2.0001  0.0000  0.0000
      3s       1.9432  0.0000  0.0000
      3px      1.9483  0.0000  0.0000
      3pz      1.3199  0.0000  0.0000
      3py      1.2007  0.0000  0.0000
      *s      -0.0659 -0.1528 -0.2231
      *px      0.0417  0.0034  0.0047
      *pz     -0.1544  0.0098  0.0109
      *py     -0.1728  0.0074  0.0081
      *d2+     0.0036  0.0000  0.0000
      *d1+     0.0006  0.0000  0.0000
      *d0      0.0073  0.0000  0.0000
      *d1-     0.0377  0.0000  0.0000
      *d2-     0.0000  0.0000  0.0000
      Total   16.1124  0.9535  0.9341
 
      N-E     -0.1124  0.0465  0.0659
 
      Total electronic charge=   18.000000
 
      Total            charge=   -0.000000
--
 
 

      Expectation values of various properties for root number:  1
      -----------------------------------------------------------
 
 
++    Molecular properties:
      ---------------------
 
      Charge (e):
                      =   -0.0000
      Dipole Moment (Debye):
      Origin of the operator (Ang)=    0.0000    0.0000    0.0000
                   X= -3.6719E-12               Y= -3.9736E-02               Z=  9.6181E-01           Total=  9.6263E-01
      Quadrupole Moment (Debye*Ang):
      Origin of the operator (Ang)=    0.0000    0.0000    0.0709
                  XX= -1.6701E+01              XY=  8.1350E-12              XZ=  2.7048E-13              YY= -1.3324E+01
                  YZ= -6.6389E-02              ZZ= -1.3053E+01
      In traceless form (Debye*Ang)
                  XX= -3.5125E+00              XY=  1.2203E-11              XZ=  4.0571E-13              YY=  1.5532E+00
                  YZ= -9.9584E-02              ZZ=  1.9593E+00
--
 
      Von Neumann Entropy (Root   2) =  1.19071
 

      Mulliken population analysis for root number:  2
      -----------------------------------------------
 
 
++    Molecular charges:
      ------------------
 
      Mulliken charges per centre and basis function type
      ---------------------------------------------------
 
                S1      H2      H3    
      1s       2.0000  1.1603  1.1793
      2s       2.0024  0.0000  0.0000
      2px      1.9999  0.0000  0.0000
      2pz      2.0000  0.0000  0.0000
      2py      2.0001  0.0000  0.0000
      3s       1.9537  0.0000  0.0000
      3px      0.9749  0.0000  0.0000
      3pz      1.4150  0.0000  0.0000
      3py      1.7292  0.0000  0.0000
      *s      -0.0512 -0.1044 -0.2171
      *px      0.0209  0.0017  0.0023
      *pz     -0.1270  0.0135  0.0132
      *py     -0.0649  0.0083  0.0086
      *d2+     0.0034  0.0000  0.0000
      *d1+     0.0003  0.0000  0.0000
      *d0      0.0067  0.0000  0.0000
      *d1-     0.0708  0.0000  0.0000
      *d2-     0.0000  0.0000  0.0000
      Total   15.9342  1.0794  0.9864
 
      N-E      0.0658 -0.0794  0.0136
 
      Total electronic charge=   18.000000
 
      Total            charge=   -0.000000
--
 
 

      Expectation values of various properties for root number:  2
      -----------------------------------------------------------
 
 
++    Molecular properties:
      ---------------------
 
      Charge (e):
                      =   -0.0000
      Dipole Moment (Debye):
      Origin of the operator (Ang)=    0.0000    0.0000    0.0000
                   X= -5.9960E-13               Y= -3.8994E-01               Z=  1.1559E-01           Total=  4.0671E-01
      Quadrupole Moment (Debye*Ang):
      Origin of the operator (Ang)=    0.0000    0.0000    0.0709
                  XX= -1.3958E+01              XY=  4.3512E-12              XZ= -4.9904E-13              YY= -1.6696E+01
                  YZ= -1.0735E+00              ZZ= -1.6221E+01
      In traceless form (Debye*Ang)
                  XX=  2.4998E+00              XY=  6.5268E-12              XZ= -7.4856E-13              YY= -1.6061E+00
                  YZ= -1.6103E+00              ZZ= -8.9371E-01
--
 
      Von Neumann Entropy (Root   3) =  1.28899
 

      Mulliken population analysis for root number:  3
      -----------------------------------------------
 
 
++    Molecular charges:
      ------------------
 
      Mulliken charges per centre and basis function type
      ---------------------------------------------------
 
                S1      H2      H3    
      1s       2.0000  1.0786  1.1734
      2s       2.0024  0.0000  0.0000
      2px      1.9999  0.0000  0.0000
      2pz      2.0000  0.0000  0.0000
      2py      2.0001  0.0000  0.0000
      3s       1.9816  0.0000  0.0000
      3px      0.9749  0.0000  0.0000
      3pz      1.7144  0.0000  0.0000
      3py      1.3807  0.0000  0.0000
      *s      -0.0728 -0.0381 -0.1081
      *px      0.0209  0.0017  0.0023
      *pz     -0.0754  0.0139  0.0154
      *py     -0.1342  0.0111  0.0113
      *d2+     0.0052  0.0000  0.0000
      *d1+     0.0003  0.0000  0.0000
      *d0      0.0085  0.0000  0.0000
      *d1-     0.0318  0.0000  0.0000
      *d2-     0.0000  0.0000  0.0000
      Total   15.8382  1.0673  1.0945
 
      N-E      0.1618 -0.0673 -0.0945
 
      Total electronic charge=   18.000000
 
      Total            charge=   -0.000000
--
 
 

      Expectation values of various properties for root number:  3
      -----------------------------------------------------------
 
 
++    Molecular properties:
      ---------------------
 
      Charge (e):
                      =   -0.0000
      Dipole Moment (Debye):
      Origin of the operator (Ang)=    0.0000    0.0000    0.0000
                   X=  9.1492E-15               Y=  1.4660E-01               Z= -1.0023E+00           Total=  1.0129E+00
      Quadrupole Moment (Debye*Ang):
      Origin of the operator (Ang)=    0.0000    0.0000    0.0709
                  XX= -1.4331E+01              XY=  5.0629E-12              XZ= -1.7473E-13              YY= -1.6686E+01
                  YZ=  5.3839E-01              ZZ= -1.8348E+01
      In traceless form (Debye*Ang)
                  XX=  3.1854E+00              XY=  7.5944E-12              XZ= -2.6209E-13              YY= -3.4605E-01
                  YZ=  8.0758E-01              ZZ= -2.8394E+00
--
 
      Von Neumann Entropy (Root   4) =  1.24362
 

      Mulliken population analysis for root number:  4
      -----------------------------------------------
 
 
++    Molecular charges:
      ------------------
 
      Mulliken charges per centre and basis function type
      ---------------------------------------------------
 
                S1      H2      H3    
      1s       2.0000  1.1873  0.8458
      2s       2.0024  0.0000  0.0000
      2px      1.9999  0.0000  0.0000
      2pz      2.0000  0.0000  0.0000
      2py      2.0001  0.0000  0.0000
      3s       1.9016  0.0000  0.0000
      3px      1.9366  0.0000  0.0000
      3pz      1.1443  0.0000  0.0000
      3py      1.1617  0.0000  0.0000
      *s      -0.0797  0.0191 -0.1165
      *px      0.0414  0.0034  0.0047
      *pz     -0.0701  0.0160  0.0086
      *py     -0.0812  0.0097  0.0075
      *d2+     0.0043  0.0000  0.0000
      *d1+     0.0005  0.0000  0.0000
      *d0      0.0062  0.0000  0.0000
      *d1-     0.0461  0.0000  0.0000
      *d2-     0.0000  0.0000  0.0000
      Total   16.0143  1.2355  0.7502
 
      N-E     -0.0143 -0.2355  0.2498
 
      Total electronic charge=   18.000000
 
      Total            charge=   -0.000000
--
 
 

      Expectation values of various properties for root number:  4
      -----------------------------------------------------------
 
 
++    Molecular properties:
      ---------------------
 
      Charge (e):
                      =   -0.0000
      Dipole Moment (Debye):
      Origin of the operator (Ang)=    0.0000    0.0000    0.0000
                   X= -5.1297E-12               Y= -1.8941E+00               Z= -2.2999E-01           Total=  1.9080E+00
      Quadrupole Moment (Debye*Ang):
      Origin of the operator (Ang)=    0.0000    0.0000    0.0709
                  XX= -1.7029E+01              XY=  7.4156E-12              XZ=  8.0669E-13              YY= -1.5530E+01
                  YZ= -5.4421E+00              ZZ= -1.5865E+01
      In traceless form (Debye*Ang)
                  XX= -1.3314E+00              XY=  1.1123E-11              XZ=  1.2100E-12              YY=  9.1628E-01
                  YZ= -8.1631E+00              ZZ=  4.1508E-01
--
 
 
      Input file to MOLDEN was generated!
 
 
      Input file to MOLDEN was generated!
 
 
      Input file to MOLDEN was generated!
 
 
      Input file to MOLDEN was generated!
 
 
      Input file to MOLDEN was generated!
 
      Average orbitals are written to the RASORB file
      Natural orbitals for root   1 are written to the RASORB.1 file
      Natural orbitals for root   2 are written to the RASORB.2 file
      Natural orbitals for root   3 are written to the RASORB.3 file
      Natural orbitals for root   4 are written to the RASORB.4 file
      Spin density orbitals for root   1 are written to the SPDORB.1 file
      Spin density orbitals for root   2 are written to the SPDORB.2 file
      Spin density orbitals for root   3 are written to the SPDORB.3 file
      Spin density orbitals for root   4 are written to the SPDORB.4 file
 
--- Stop Module: rasscf at Wed Mar 20 15:35:49 2024 /rc=_RC_ALL_IS_WELL_ ---
--- Module rasscf spent 1 second ---

*** symbolic link created: INPORB -> MOLCAS.RasOrb
--- Start Module: caspt2 at Wed Mar 20 15:35:49 2024 ---
 
()()()()()()()()()()()()()()()()()()()()()()()()()()()()()()()()()()()()()()()()()()()()()()()()()()

                                              &CASPT2

                                   only a single process is used
                       available to each process: 10 GB of memory, 1 thread?
                                            pid: 1177555
()()()()()()()()()()()()()()()()()()()()()()()()()()()()()()()()()()()()()()()()()()()()()()()()()()
 
 
++    Wave function specifications:
      -----------------------------
 
      Number of closed shell electrons           0
      Number of electrons in active shells       8
      Max number of holes in RAS1 space          0
      Max number of electrons in RAS3 space      0
      Number of inactive orbitals                0
      Number of active orbitals                  6
      Number of secondary orbitals              17
      Spin quantum number                      0.0
      State symmetry                             1
      Number of CSFs                           105
      Number of CASSCF root(s) available         4
      CASPT2 state passed to geometry opt.       1
      A file JOBMIX will be created
      This is a MULTI-STATE CASSCF reference
      Number of CI roots used                    4
      These are:                                 1   2   3   4
      Off-diagonal elements of Heff are computed
--
 
++    Orbital specifications:
      -----------------------
 
      Symmetry species                           1
                                                 a
      Frozen orbitals                            5
      Inactive orbitals                          0
      Active orbitals                            6
      Secondary orbitals                        17
      Deleted orbitals                           0
      Number of basis functions                 28
--
 
++    CASPT2 specifications:
      ----------------------
 
      Type of calculation                        XMS-CASPT2
      Fock operator                              state-average
      IPEA shift                                 0.00
      Real shift                                 0.00
      Imaginary shift                            0.00
      The input orbitals will be transformed to quasi-canonical
      The input states will be rotated to diagonalize the Fock operator
      Quantities for analytical gradients will be calculated
--
 
--------------------------------------------------------------------------------
 Estimated memory requirements:
  POLY3 :                   257654
  RHS:                      259460
  SIGMA :                   264688
  PRPCTL:                        0
 Available workspace:   1124990510
 
++ CASPT2 computation for group   1
 
********************************************************************************
 Multi-State initialization phase begins for group   1
--------------------------------------------------------------------------------
 
  H0 in the original model space basis:
                1               2               3               4
   1       -4.48750575     -0.00000000     -0.00000000      0.01491921
   2       -0.00000000     -4.12315904     -0.01623939     -0.00000000
   3       -0.00000000     -0.01623939     -4.06970356     -0.00000000
   4        0.01491921     -0.00000000     -0.00000000     -3.94531449
 
  H0 eigenvectors:
                1               2               3               4
   1        0.99962221      0.00000000     -0.00000000      0.02748532
   2       -0.00000000      0.96296929     -0.26961110     -0.00000000
   3        0.00000000      0.26961110      0.96296929     -0.00000000
   4       -0.02748532      0.00000000     -0.00000000      0.99962221
 
********************************************************************************
 Compute H0 matrices for state    1
--------------------------------------------------------------------------------
--------------------------------------------------------------------------------
 H0 matrices have been computed.
 
********************************************************************************
  CASPT2 EQUATION SOLUTION
--------------------------------------------------------------------------------
 
  Total nr of CASPT2 parameters:
   Before reduction:        8925
   After  reduction:        8466
 
 Variance of |WF0>:       0.3200234142
 
 The contributions to the second order correlation energy in atomic units.
-----------------------------------------------------------------------------------------------------------------------------
  IT.      VJTU        VJTI        ATVX        AIVX        VJAI        BVAT        BJAT        BJAI        TOTAL       RNORM  
-----------------------------------------------------------------------------------------------------------------------------
   1     0.000000    0.000000   -0.046324    0.000000    0.000000   -0.085087    0.000000    0.000000   -0.131411    0.000716
   2     0.000000    0.000000   -0.046401    0.000000    0.000000   -0.085090    0.000000    0.000000   -0.131490    0.000031
   3     0.000000    0.000000   -0.046402    0.000000    0.000000   -0.085090    0.000000    0.000000   -0.131492    0.000001
-----------------------------------------------------------------------------------------------------------------------------
 
  FINAL CASPT2 RESULT:
 
      Reference energy:        -398.6937331064
      E2 (Non-variational):      -0.1314920568
      E2 (Variational):          -0.1314920546
      Total energy:            -398.8252251610
      Residual norm:              0.0000000620
      Reference weight:           0.94490
 
      Contributions to the CASPT2 correlation energy
      Active & Virtual Only:         -0.1314920568
      One Inactive Excited:           0.0000000000
      Two Inactive Excited:           0.0000000000
 
 
++ Denominators, etc.
--------------------------------------------------------------------------------------------------------------
 Report on small energy denominators, large coefficients, and large energy contributions.
CASE  SYMM ACTIVE-MIX  NON-ACTIVE INDICES          DENOMINATOR     RHS VALUE       COEFFICIENT     CONTRIBUTION
ATVX     1  Mu1.0019  Se1.013                       1.58255813      0.04328688     -0.02674877     -0.00115787
ATVX     1  Mu1.0001  Se1.015                       0.93541353      0.02469076     -0.02501990     -0.00061776
ATVX     1  Mu1.0008  Se1.015                       1.49952570      0.04685802     -0.03050962     -0.00142962
ATVX     1  Mu1.0010  Se1.015                       1.50735126      0.04165913     -0.02651640     -0.00110465
ATVX     1  Mu1.0016  Se1.016                       1.71149860     -0.05951750      0.03466587     -0.00206323
ATVX     1  Mu1.0010  Se1.018                       1.59335465      0.04973955     -0.03087520     -0.00153572
ATVX     1  Mu1.0006  Se1.019                       1.57052427     -0.04025865      0.02563936     -0.00103221
ATVX     1  Mu1.0008  Se1.019                       1.59959201      0.04944263     -0.03072796     -0.00151927
ATVX     1  Mu1.0031  Se1.019                       2.04631505      0.05436874     -0.02630123     -0.00142996
BVATP    1  Mu1.0001  Se1.015 Se1.015               1.97135429     -0.07401393      0.03725930     -0.00275771
BVATP    1  Mu1.0001  Se1.018 Se1.018               2.14336107     -0.07687296      0.03586526     -0.00275707
BVATP    1  Mu1.0001  Se1.019 Se1.019               2.17148691     -0.07747490      0.03567522     -0.00276393
BVATP    1  Mu1.0001  Se1.020 Se1.013               1.97604824     -0.04951401      0.02537772     -0.00125655
BVATM    1  Mu1.0001  Se1.018 Se1.013               2.09996364     -0.06364938      0.02969597     -0.00189013
BVATM    1  Mu1.0002  Se1.019 Se1.013               2.13904402     -0.06329411      0.02924396     -0.00185097
--
********************************************************************************
 Compute H0 matrices for state    2
--------------------------------------------------------------------------------
--------------------------------------------------------------------------------
 H0 matrices have been computed.
 
********************************************************************************
  CASPT2 EQUATION SOLUTION
--------------------------------------------------------------------------------
 
  Total nr of CASPT2 parameters:
   Before reduction:        8925
   After  reduction:        7820
 
 Variance of |WF0>:       0.3178518938
 
 The contributions to the second order correlation energy in atomic units.
-----------------------------------------------------------------------------------------------------------------------------
  IT.      VJTU        VJTI        ATVX        AIVX        VJAI        BVAT        BJAT        BJAI        TOTAL       RNORM  
-----------------------------------------------------------------------------------------------------------------------------
   1     0.000000    0.000000   -0.056543    0.000000    0.000000   -0.080288    0.000000    0.000000   -0.136831    0.000981
   2     0.000000    0.000000   -0.056644    0.000000    0.000000   -0.080307    0.000000    0.000000   -0.136951    0.000056
   3     0.000000    0.000000   -0.056647    0.000000    0.000000   -0.080307    0.000000    0.000000   -0.136955    0.000003
-----------------------------------------------------------------------------------------------------------------------------
 
  FINAL CASPT2 RESULT:
 
      Reference energy:        -398.5086708972
      E2 (Non-variational):      -0.1369543361
      E2 (Variational):          -0.1369543300
      Total energy:            -398.6456252272
      Residual norm:              0.0000001604
      Reference weight:           0.93769
 
      Contributions to the CASPT2 correlation energy
      Active & Virtual Only:         -0.1369543361
      One Inactive Excited:           0.0000000000
      Two Inactive Excited:           0.0000000000
 
 
++ Denominators, etc.
--------------------------------------------------------------------------------------------------------------
 Report on small energy denominators, large coefficients, and large energy contributions.
CASE  SYMM ACTIVE-MIX  NON-ACTIVE INDICES          DENOMINATOR     RHS VALUE       COEFFICIENT     CONTRIBUTION
ATVX     1  Mu1.0031  Se1.013                       1.47745217      0.06709236     -0.04505545     -0.00302288
ATVX     1  Mu1.0036  Se1.016                       1.72635841     -0.04678567      0.02717905     -0.00127159
ATVX     1  Mu1.0001  Se1.017                       0.63825895      0.02574104     -0.03952154     -0.00101733
ATVX     1  Mu1.0052  Se1.018                       1.84612014     -0.05798755      0.03133281     -0.00181691
ATVX     1  Mu1.0054  Se1.019                       1.89653538      0.07077657     -0.03723873     -0.00263563
ATVX     1  Mu1.0031  Se1.020                       1.69287036      0.05018335     -0.02931048     -0.00147090
ATVX     1  Mu1.0008  Se1.021                       1.52564480     -0.04655432      0.03030166     -0.00141067
ATVX     1  Mu1.0009  Se1.021                       1.52564480     -0.04617850      0.02977309     -0.00137488
ATVX     1  Mu1.0010  Se1.021                       1.53330599     -0.03950375      0.02519363     -0.00099524
ATVX     1  Mu1.0008  Se1.022                       1.56484899     -0.04567891      0.02889757     -0.00132001
ATVX     1  Mu1.0009  Se1.022                       1.56484899     -0.04305346      0.02708792     -0.00116623
--
********************************************************************************
 Compute H0 matrices for state    3
--------------------------------------------------------------------------------
--------------------------------------------------------------------------------
 H0 matrices have been computed.
 
********************************************************************************
  CASPT2 EQUATION SOLUTION
--------------------------------------------------------------------------------
 
  Total nr of CASPT2 parameters:
   Before reduction:        8925
   After  reduction:        7820
 
 Variance of |WF0>:       0.3189658683
 
 The contributions to the second order correlation energy in atomic units.
-----------------------------------------------------------------------------------------------------------------------------
  IT.      VJTU        VJTI        ATVX        AIVX        VJAI        BVAT        BJAT        BJAI        TOTAL       RNORM  
-----------------------------------------------------------------------------------------------------------------------------
   1     0.000000    0.000000   -0.064962    0.000000    0.000000   -0.081550    0.000000    0.000000   -0.146513    0.001235
   2     0.000000    0.000000   -0.065090    0.000000    0.000000   -0.081587    0.000000    0.000000   -0.146677    0.000064
   3     0.000000    0.000000   -0.065092    0.000000    0.000000   -0.081589    0.000000    0.000000   -0.146681    0.000003
-----------------------------------------------------------------------------------------------------------------------------
 
  FINAL CASPT2 RESULT:
 
      Reference energy:        -398.4765273915
      E2 (Non-variational):      -0.1466811993
      E2 (Variational):          -0.1466811886
      Total energy:            -398.6232085800
      Residual norm:              0.0000002378
      Reference weight:           0.91937
 
      Contributions to the CASPT2 correlation energy
      Active & Virtual Only:         -0.1466811993
      One Inactive Excited:           0.0000000000
      Two Inactive Excited:           0.0000000000
 
 
++ Denominators, etc.
--------------------------------------------------------------------------------------------------------------
 Report on small energy denominators, large coefficients, and large energy contributions.
CASE  SYMM ACTIVE-MIX  NON-ACTIVE INDICES          DENOMINATOR     RHS VALUE       COEFFICIENT     CONTRIBUTION
ATVX     1  Mu1.0001  Se1.012                       0.34190608     -0.02094726      0.06107733     -0.00127940
ATVX     1  Mu1.0001  Se1.013                       0.40707824     -0.04302310      0.10455010     -0.00449807
ATVX     1  Mu1.0008  Se1.013                       0.97097366      0.02629046     -0.02657324     -0.00069862
ATVX     1  Mu1.0033  Se1.013                       1.45208271     -0.05899790      0.04047033     -0.00238766
ATVX     1  Mu1.0048  Se1.013                       1.57204847      0.04441589     -0.02788518     -0.00123855
ATVX     1  Mu1.0001  Se1.014                       0.48957585      0.02375316     -0.04791638     -0.00113817
ATVX     1  Mu1.0001  Se1.017                       0.57571009     -0.02058713      0.03533000     -0.00072734
ATVX     1  Mu1.0002  Se1.018                       0.76815497      0.02339239     -0.03004805     -0.00070290
ATVX     1  Mu1.0005  Se1.018                       1.01069319      0.02934348     -0.02814736     -0.00082594
ATVX     1  Mu1.0052  Se1.018                       1.83592025      0.06473527     -0.03518101     -0.00227745
ATVX     1  Mu1.0003  Se1.019                       0.80989395     -0.02256674      0.02751945     -0.00062102
ATVX     1  Mu1.0053  Se1.019                       1.87675416     -0.05277851      0.02806654     -0.00148131
ATVX     1  Mu1.0033  Se1.020                       1.66750090     -0.06726642      0.04025778     -0.00270800
ATVX     1  Mu1.0011  Se1.021                       1.47075713     -0.05126901      0.03398384     -0.00174232
ATVX     1  Mu1.0011  Se1.022                       1.50996131      0.04964145     -0.03218480     -0.00159770
BVATP    1  Mu1.0007  Se1.016 Se1.016               2.37044556      0.06063109     -0.02554882     -0.00154905
--
********************************************************************************
 Compute H0 matrices for state    4
--------------------------------------------------------------------------------
--------------------------------------------------------------------------------
 H0 matrices have been computed.
 
********************************************************************************
  CASPT2 EQUATION SOLUTION
--------------------------------------------------------------------------------
 
  Total nr of CASPT2 parameters:
   Before reduction:        8925
   After  reduction:        8466
 
 Variance of |WF0>:       0.3114677839
 
 The contributions to the second order correlation energy in atomic units.
-----------------------------------------------------------------------------------------------------------------------------
  IT.      VJTU        VJTI        ATVX        AIVX        VJAI        BVAT        BJAT        BJAI        TOTAL       RNORM  
-----------------------------------------------------------------------------------------------------------------------------
   1     0.000000    0.000000   -0.054535    0.000000    0.000000   -0.087404    0.000000    0.000000   -0.141939    0.000969
   2     0.000000    0.000000   -0.054637    0.000000    0.000000   -0.087436    0.000000    0.000000   -0.142073    0.000055
   3     0.000000    0.000000   -0.054639    0.000000    0.000000   -0.087437    0.000000    0.000000   -0.142075    0.000003
-----------------------------------------------------------------------------------------------------------------------------
 
  FINAL CASPT2 RESULT:
 
      Reference energy:        -398.3546286403
      E2 (Non-variational):      -0.1420750345
      E2 (Variational):          -0.1420750291
      Total energy:            -398.4967036694
      Residual norm:              0.0000002031
      Reference weight:           0.92997
 
      Contributions to the CASPT2 correlation energy
      Active & Virtual Only:         -0.1420750345
      One Inactive Excited:           0.0000000000
      Two Inactive Excited:           0.0000000000
 
 
++ Denominators, etc.
--------------------------------------------------------------------------------------------------------------
 Report on small energy denominators, large coefficients, and large energy contributions.
CASE  SYMM ACTIVE-MIX  NON-ACTIVE INDICES          DENOMINATOR     RHS VALUE       COEFFICIENT     CONTRIBUTION
ATVX     1  Mu1.0001  Se1.012                       0.22224736     -0.00000000      0.00000000     -0.00000000
ATVX     1  Mu1.0048  Se1.012                       1.38878573      0.04544237     -0.03256879     -0.00148000
ATVX     1  Mu1.0001  Se1.013                       0.28741952     -0.00000000      0.00000000     -0.00000000
ATVX     1  Mu1.0002  Se1.013                       0.44613282     -0.01230774      0.02725437     -0.00033544
ATVX     1  Mu1.0017  Se1.013                       1.01002823     -0.02721566      0.02549590     -0.00069389
ATVX     1  Mu1.0003  Se1.016                       0.63410971     -0.01793875      0.02807495     -0.00050363
ATVX     1  Mu1.0051  Se1.016                       1.64193478      0.05284609     -0.03226964     -0.00170532
ATVX     1  Mu1.0002  Se1.017                       0.61476467      0.01584825     -0.02507915     -0.00039746
ATVX     1  Mu1.0011  Se1.018                       1.05180012      0.02806871     -0.02676927     -0.00075138
ATVX     1  Mu1.0030  Se1.018                       1.48672863     -0.05327464      0.03581765     -0.00190817
ATVX     1  Mu1.0001  Se1.019                       0.49284795     -0.01578295      0.03204827     -0.00050582
ATVX     1  Mu1.0002  Se1.020                       0.66155101      0.01997378     -0.02954448     -0.00059011
ATVX     1  Mu1.0017  Se1.021                       1.50215052      0.04798216     -0.03175931     -0.00152388
ATVX     1  Mu1.0017  Se1.022                       1.54135471      0.04006045     -0.02562977     -0.00102674
BVATP    1  Mu1.0005  Se1.015 Se1.015               1.97269275     -0.07211689      0.03654530     -0.00263553
BVATP    1  Mu1.0005  Se1.018 Se1.018               2.14469954     -0.07364248      0.03433607     -0.00252859
BVATP    1  Mu1.0005  Se1.019 Se1.019               2.17282537     -0.07288364      0.03354778     -0.00244508
BVATM    1  Mu1.0005  Se1.019 Se1.013               2.15571509      0.06776999     -0.03125446     -0.00211811
--
--
 
  Total CASPT2 energies:
 
  State-specific CASPT2 energies obtained using
  rotated states do not have a well-defined physical
  meaning, however they can be extracted from the
  diagonal of the effective Hamiltonian.
 
++ Multi-State CASPT2 section:
********************************************************************************
  MULTI-STATE CASPT2 SECTION
--------------------------------------------------------------------------------
 
  Output diagonal energies have been shifted. Add   -398.000000000000     
 
  Effective Hamiltonian matrix (Symmetric):
 
                1               2               3               4
   1        -0.82496899
   2         0.00000000     -0.64328871
   3        -0.00000000      0.01054961     -0.62554510
   4        -0.00787330      0.00000000      0.00000000     -0.49695984
 
       Total XMS-CASPT2 energies:
::    XMS-CASPT2 Root  1     Total energy:   -398.82515786
::    XMS-CASPT2 Root  2     Total energy:   -398.64820107
::    XMS-CASPT2 Root  3     Total energy:   -398.62063273
::    XMS-CASPT2 Root  4     Total energy:   -398.49677097
 
       Eigenvectors:
            0.99971238      0.00000000      0.00000000     -0.02398259
           -0.00000000      0.90653818      0.42212383      0.00000000
            0.00000000     -0.42212383      0.90653818      0.00000000
            0.02398259     -0.00000000     -0.00000000      0.99971238
 
       In terms of the input states:
            0.99999386      0.00000000      0.00000000      0.00350388
           -0.00000000      0.98677770      0.16207953     -0.00000000
            0.00000000     -0.16207953      0.98677770      0.00000000
           -0.00350388      0.00000000     -0.00000000      0.99999386
 
--
 
********************************************************************************
 SECOND RUN to compute analytical gradients/NAC quantities
--------------------------------------------------------------------------------
 
++ CASPT2 computation for group   1
 
********************************************************************************
 Multi-State initialization phase begins for group   1
--------------------------------------------------------------------------------
 
  H0 in the original model space basis:
                1               2               3               4
   1       -4.48791597     -0.00000000     -0.00000000     -0.00000000
   2        0.00000000     -4.12770573      0.00000000      0.00000000
   3        0.00000000      0.00000000     -4.06515687     -0.00000000
   4       -0.00000000      0.00000000     -0.00000000     -3.94490428
 
  H0 eigenvectors:
                1               2               3               4
   1        1.00000000      0.00000000      0.00000000     -0.00000000
   2        0.00000000      1.00000000      0.00000000      0.00000000
   3        0.00000000     -0.00000000      1.00000000      0.00000000
   4        0.00000000      0.00000000      0.00000000      1.00000000
 
********************************************************************************
 Compute H0 matrices for state    1
--------------------------------------------------------------------------------
--------------------------------------------------------------------------------
 H0 matrices have been computed.
 
********************************************************************************
  CASPT2 EQUATION SOLUTION (SECOND RUN)
--------------------------------------------------------------------------------
 
  Total nr of CASPT2 parameters:
   Before reduction:        8925
   After  reduction:        8466
 
 Variance of |WF0>:       0.3200234142
 
 The contributions to the second order correlation energy in atomic units.
-----------------------------------------------------------------------------------------------------------------------------
  IT.      VJTU        VJTI        ATVX        AIVX        VJAI        BVAT        BJAT        BJAI        TOTAL       RNORM  
-----------------------------------------------------------------------------------------------------------------------------
   1     0.000000    0.000000   -0.046324    0.000000    0.000000   -0.085087    0.000000    0.000000   -0.131411    0.000716
   2     0.000000    0.000000   -0.046401    0.000000    0.000000   -0.085090    0.000000    0.000000   -0.131490    0.000031
   3     0.000000    0.000000   -0.046402    0.000000    0.000000   -0.085090    0.000000    0.000000   -0.131492    0.000001
 
********************************************************************************
  CASPT2 PROPERTY SECTION
--------------------------------------------------------------------------------
 
 Variance of |WF0>:       0.0001001684
 
 Solving the Lambda equation for analytic gradients
-----------------------------------------------------------------------------------------------------------------------------
  IT.      VJTU        VJTI        ATVX        AIVX        VJAI        BVAT        BJAT        BJAI        TOTAL       RNORM  
-----------------------------------------------------------------------------------------------------------------------------
   1     0.000000    0.000000   -0.000023    0.000000    0.000000   -0.000016    0.000000    0.000000   -0.000039    0.000011
-----------------------------------------------------------------------------------------------------------------------------
 
 * TypeIndex information is IGNORED *
 
      Input file to MOLDEN was generated!
 
 
 
      Mulliken population Analysis:
      -----------------------------
 
++    Molecular charges:
      ------------------
 
      Mulliken charges per centre and basis function type
      ---------------------------------------------------
 
                S1      H2      H3    
      1s       2.0000  1.1161  1.1178
      2s       2.0024  0.0000  0.0000
      2px      1.9999  0.0000  0.0000
      2pz      2.0001  0.0000  0.0000
      2py      2.0001  0.0000  0.0000
      3s       1.8781  0.0000  0.0000
      3px      1.8615  0.0000  0.0000
      3pz      1.3103  0.0000  0.0000
      3py      1.1623  0.0000  0.0000
      *s      -0.0085 -0.2056 -0.2249
      *px      0.0995  0.0064  0.0065
      *pz     -0.1159  0.0118  0.0120
      *py     -0.1541  0.0093  0.0093
      *d2+     0.0151  0.0000  0.0000
      *d1+     0.0127  0.0000  0.0000
      *d0      0.0174  0.0000  0.0000
      *d1-     0.0481  0.0000  0.0000
      *d2-     0.0121  0.0000  0.0000
      Total   16.1413  0.9380  0.9208
 
      N-E     -0.1413  0.0620  0.0792
 
      Total electronic charge=   18.000000
 
      Total            charge=   -0.000000
--
 
 
      Expectation values of various properties:
      -----------------------------------------
 
++    Molecular properties:
      ---------------------
 
      Charge (e):
                      =   -0.0000
      Dipole Moment (Debye):
      Origin of the operator (Ang)=    0.0000    0.0000    0.0000
                   X= -4.6185E-13               Y= -6.2914E-02               Z=  1.0348E+00           Total=  1.0367E+00
      Quadrupole Moment (Debye*Ang):
      Origin of the operator (Ang)=    0.0000    0.0000    0.0709
                  XX= -1.6838E+01              XY=  2.5194E-12              XZ=  1.0837E-13              YY= -1.3269E+01
                  YZ= -8.2153E-02              ZZ= -1.3009E+01
      In traceless form (Debye*Ang)
                  XX= -3.6994E+00              XY=  3.7790E-12              XZ=  1.6255E-13              YY=  1.6543E+00
                  YZ= -1.2323E-01              ZZ=  2.0452E+00
--
 
********************************************************************************
 Compute H0 matrices for state    2
--------------------------------------------------------------------------------
--------------------------------------------------------------------------------
 H0 matrices have been computed.
 
********************************************************************************
  CASPT2 EQUATION SOLUTION (SECOND RUN)
--------------------------------------------------------------------------------
 
  Total nr of CASPT2 parameters:
   Before reduction:        8925
   After  reduction:        7820
 
 Variance of |WF0>:       0.3178518938
 
 The contributions to the second order correlation energy in atomic units.
-----------------------------------------------------------------------------------------------------------------------------
  IT.      VJTU        VJTI        ATVX        AIVX        VJAI        BVAT        BJAT        BJAI        TOTAL       RNORM  
-----------------------------------------------------------------------------------------------------------------------------
   1     0.000000    0.000000   -0.056543    0.000000    0.000000   -0.080288    0.000000    0.000000   -0.136831    0.000981
   2     0.000000    0.000000   -0.056644    0.000000    0.000000   -0.080307    0.000000    0.000000   -0.136951    0.000056
   3     0.000000    0.000000   -0.056647    0.000000    0.000000   -0.080307    0.000000    0.000000   -0.136955    0.000003
 
********************************************************************************
  CASPT2 PROPERTY SECTION
--------------------------------------------------------------------------------
 
 Variance of |WF0>:       0.0000000000
-----------------------------------------------------------------------------------------------------------------------------
 
 * TypeIndex information is IGNORED *
 
      Input file to MOLDEN was generated!
 
 
 
      Mulliken population Analysis:
      -----------------------------
 
++    Molecular charges:
      ------------------
 
      Mulliken charges per centre and basis function type
      ---------------------------------------------------
 
                S1      H2      H3    
      1s       2.0000  1.1832  1.1347
      2s       2.0024  0.0000  0.0000
      2px      1.9999  0.0000  0.0000
      2pz      2.0000  0.0000  0.0000
      2py      2.0001  0.0000  0.0000
      3s       1.9569  0.0000  0.0000
      3px      0.9749  0.0000  0.0000
      3pz      1.4523  0.0000  0.0000
      3py      1.6768  0.0000  0.0000
      *s      -0.0544 -0.0517 -0.2346
      *px      0.0209  0.0017  0.0023
      *pz     -0.1167  0.0154  0.0119
      *py     -0.0692  0.0090  0.0086
      *d2+     0.0039  0.0000  0.0000
      *d1+     0.0003  0.0000  0.0000
      *d0      0.0068  0.0000  0.0000
      *d1-     0.0643  0.0000  0.0000
      *d2-     0.0000  0.0000  0.0000
      Total   15.9192  1.1577  0.9231
 
      N-E      0.0808 -0.1577  0.0769
 
      Total electronic charge=   18.000000
 
      Total            charge=   -0.000000
--
 
 
      Expectation values of various properties:
      -----------------------------------------
 
++    Molecular properties:
      ---------------------
 
      Charge (e):
                      =   -0.0000
      Dipole Moment (Debye):
      Origin of the operator (Ang)=    0.0000    0.0000    0.0000
                   X= -1.9670E-12               Y= -1.0781E+00               Z= -7.6749E-02           Total=  1.0808E+00
      Quadrupole Moment (Debye*Ang):
      Origin of the operator (Ang)=    0.0000    0.0000    0.0709
                  XX= -1.4042E+01              XY=  2.8834E-12              XZ=  9.8004E-13              YY= -1.6794E+01
                  YZ= -2.8935E+00              ZZ= -1.6634E+01
      In traceless form (Debye*Ang)
                  XX=  2.6716E+00              XY=  4.3251E-12              XZ=  1.4701E-12              YY= -1.4562E+00
                  YZ= -4.3402E+00              ZZ= -1.2155E+00
--
 
********************************************************************************
 Compute H0 matrices for state    3
--------------------------------------------------------------------------------
--------------------------------------------------------------------------------
 H0 matrices have been computed.
 
********************************************************************************
  CASPT2 EQUATION SOLUTION (SECOND RUN)
--------------------------------------------------------------------------------
 
  Total nr of CASPT2 parameters:
   Before reduction:        8925
   After  reduction:        7820
 
 Variance of |WF0>:       0.3189658683
 
 The contributions to the second order correlation energy in atomic units.
-----------------------------------------------------------------------------------------------------------------------------
  IT.      VJTU        VJTI        ATVX        AIVX        VJAI        BVAT        BJAT        BJAI        TOTAL       RNORM  
-----------------------------------------------------------------------------------------------------------------------------
   1     0.000000    0.000000   -0.064962    0.000000    0.000000   -0.081550    0.000000    0.000000   -0.146513    0.001235
   2     0.000000    0.000000   -0.065090    0.000000    0.000000   -0.081587    0.000000    0.000000   -0.146677    0.000064
   3     0.000000    0.000000   -0.065092    0.000000    0.000000   -0.081589    0.000000    0.000000   -0.146681    0.000003
 
********************************************************************************
  CASPT2 PROPERTY SECTION
--------------------------------------------------------------------------------
 
 Variance of |WF0>:       0.0000000000
-----------------------------------------------------------------------------------------------------------------------------
 
 * TypeIndex information is IGNORED *
 
      Input file to MOLDEN was generated!
 
 
 
      Mulliken population Analysis:
      -----------------------------
 
++    Molecular charges:
      ------------------
 
      Mulliken charges per centre and basis function type
      ---------------------------------------------------
 
                S1      H2      H3    
      1s       2.0000  1.0557  1.2180
      2s       2.0024  0.0000  0.0000
      2px      1.9999  0.0000  0.0000
      2pz      2.0000  0.0000  0.0000
      2py      2.0001  0.0000  0.0000
      3s       1.9784  0.0000  0.0000
      3px      0.9749  0.0000  0.0000
      3pz      1.6771  0.0000  0.0000
      3py      1.4331  0.0000  0.0000
      *s      -0.0695 -0.0908 -0.0906
      *px      0.0209  0.0017  0.0023
      *pz     -0.0857  0.0120  0.0167
      *py     -0.1300  0.0103  0.0113
      *d2+     0.0046  0.0000  0.0000
      *d1+     0.0003  0.0000  0.0000
      *d0      0.0084  0.0000  0.0000
      *d1-     0.0383  0.0000  0.0000
      *d2-     0.0000  0.0000  0.0000
      Total   15.8533  0.9890  1.1578
 
      N-E      0.1467  0.0110 -0.1578
 
      Total electronic charge=   18.000000
 
      Total            charge=   -0.000000
--
 
 
      Expectation values of various properties:
      -----------------------------------------
 
++    Molecular properties:
      ---------------------
 
      Charge (e):
                      =   -0.0000
      Dipole Moment (Debye):
      Origin of the operator (Ang)=    0.0000    0.0000    0.0000
                   X=  9.8066E-13               Y=  8.3477E-01               Z= -8.0994E-01           Total=  1.1631E+00
      Quadrupole Moment (Debye*Ang):
      Origin of the operator (Ang)=    0.0000    0.0000    0.0709
                  XX= -1.4248E+01              XY=  3.8980E-12              XZ= -8.3728E-13              YY= -1.6587E+01
                  YZ=  2.3583E+00              ZZ= -1.7935E+01
      In traceless form (Debye*Ang)
                  XX=  3.0136E+00              XY=  5.8470E-12              XZ= -1.2559E-12              YY= -4.9595E-01
                  YZ=  3.5375E+00              ZZ= -2.5176E+00
--
 
********************************************************************************
 Compute H0 matrices for state    4
--------------------------------------------------------------------------------
--------------------------------------------------------------------------------
 H0 matrices have been computed.
 
********************************************************************************
  CASPT2 EQUATION SOLUTION (SECOND RUN)
--------------------------------------------------------------------------------
 
  Total nr of CASPT2 parameters:
   Before reduction:        8925
   After  reduction:        8466
 
 Variance of |WF0>:       0.3114677839
 
 The contributions to the second order correlation energy in atomic units.
-----------------------------------------------------------------------------------------------------------------------------
  IT.      VJTU        VJTI        ATVX        AIVX        VJAI        BVAT        BJAT        BJAI        TOTAL       RNORM  
-----------------------------------------------------------------------------------------------------------------------------
   1     0.000000    0.000000   -0.054535    0.000000    0.000000   -0.087404    0.000000    0.000000   -0.141939    0.000969
   2     0.000000    0.000000   -0.054637    0.000000    0.000000   -0.087436    0.000000    0.000000   -0.142073    0.000055
   3     0.000000    0.000000   -0.054639    0.000000    0.000000   -0.087437    0.000000    0.000000   -0.142075    0.000003
 
********************************************************************************
  CASPT2 PROPERTY SECTION
--------------------------------------------------------------------------------
 
 Variance of |WF0>:       0.0001428891
 
 Solving the Lambda equation for analytic gradients
-----------------------------------------------------------------------------------------------------------------------------
  IT.      VJTU        VJTI        ATVX        AIVX        VJAI        BVAT        BJAT        BJAI        TOTAL       RNORM  
-----------------------------------------------------------------------------------------------------------------------------
   1     0.000000    0.000000   -0.000038    0.000000    0.000000   -0.000041    0.000000    0.000000   -0.000079    0.000027
   2     0.000000    0.000000   -0.000038    0.000000    0.000000   -0.000041    0.000000    0.000000   -0.000079    0.000002
-----------------------------------------------------------------------------------------------------------------------------
 
 * TypeIndex information is IGNORED *
 
      Input file to MOLDEN was generated!
 
 
 
      Mulliken population Analysis:
      -----------------------------
 
++    Molecular charges:
      ------------------
 
      Mulliken charges per centre and basis function type
      ---------------------------------------------------
 
                S1      H2      H3    
      1s       2.0000  1.1861  0.8451
      2s       2.0024  0.0000  0.0000
      2px      1.9999  0.0000  0.0000
      2pz      2.0000  0.0000  0.0000
      2py      2.0001  0.0000  0.0000
      3s       1.9045  0.0000  0.0000
      3px      1.9366  0.0000  0.0000
      3pz      1.1218  0.0000  0.0000
      3py      1.1813  0.0000  0.0000
      *s      -0.0770  0.0194 -0.1150
      *px      0.0415  0.0034  0.0047
      *pz     -0.0770  0.0161  0.0087
      *py     -0.0760  0.0096  0.0074
      *d2+     0.0044  0.0000  0.0000
      *d1+     0.0006  0.0000  0.0000
      *d0      0.0063  0.0000  0.0000
      *d1-     0.0451  0.0000  0.0000
      *d2-     0.0000  0.0000  0.0000
      Total   16.0146  1.2346  0.7508
 
      N-E     -0.0146 -0.2346  0.2492
 
      Total electronic charge=   18.000000
 
      Total            charge=   -0.000000
--
 
 
      Expectation values of various properties:
      -----------------------------------------
 
++    Molecular properties:
      ---------------------
 
      Charge (e):
                      =   -0.0000
      Dipole Moment (Debye):
      Origin of the operator (Ang)=    0.0000    0.0000    0.0000
                   X= -4.5069E-12               Y= -1.8997E+00               Z= -2.6307E-01           Total=  1.9178E+00
      Quadrupole Moment (Debye*Ang):
      Origin of the operator (Ang)=    0.0000    0.0000    0.0709
                  XX= -1.7037E+01              XY=  8.3714E-12              XZ= -3.2958E-13              YY= -1.5563E+01
                  YZ= -5.4185E+00              ZZ= -1.5844E+01
      In traceless form (Debye*Ang)
                  XX= -1.3337E+00              XY=  1.2557E-11              XZ= -4.9437E-13              YY=  8.7752E-01
                  YZ= -8.1277E+00              ZZ=  4.5622E-01
--
 
--
 
  THE ORIGINAL CI ARRAYS ARE NOW MIXED AS LINEAR
  COMBINATIONS, GIVEN BY THE EIGENVECTORS.
  A NEW JOBIPH FILE NAMED 'JOBMIX' IS PREPARED.
********************************************************************************
 
++ Mixed CI coefficients:
  The CI coefficients for the MIXED state nr.   1
--------------------------------------------------------------------------------
 CI COEFFICIENTS LARGER THAN  0.10D+00
  Occupation of active orbitals, and spin coupling
  of open shells. (u,d: Spin up or down).
  SGUGA info is (Midvert:IsyUp:UpperWalk/LowerWalk)
        Conf  SGUGA info        Occupation    Coefficient         Weight
           1  ( 1:1:   1/   1)   222200         -0.968733       0.938444
          17  ( 2:1:   3/   2)   2u220d         -0.136036       0.018506
          31  ( 3:1:   1/   1)   220220          0.133724       0.017882
          52  ( 3:1:   4/   4)   202202          0.121266       0.014705
 
  The CI coefficients for the MIXED state nr.   2
--------------------------------------------------------------------------------
 CI COEFFICIENTS LARGER THAN  0.10D+00
  Occupation of active orbitals, and spin coupling
  of open shells. (u,d: Spin up or down).
  SGUGA info is (Midvert:IsyUp:UpperWalk/LowerWalk)
        Conf  SGUGA info        Occupation    Coefficient         Weight
           2  ( 1:1:   2/   1)   222ud0          0.716060       0.512741
           4  ( 1:1:   4/   1)   222u0d         -0.656016       0.430357
           8  ( 2:1:   2/   1)   22ud20          0.148729       0.022120
 
  The CI coefficients for the MIXED state nr.   3
--------------------------------------------------------------------------------
 CI COEFFICIENTS LARGER THAN  0.10D+00
  Occupation of active orbitals, and spin coupling
  of open shells. (u,d: Spin up or down).
  SGUGA info is (Midvert:IsyUp:UpperWalk/LowerWalk)
        Conf  SGUGA info        Occupation    Coefficient         Weight
           2  ( 1:1:   2/   1)   222ud0         -0.633729       0.401613
           4  ( 1:1:   4/   1)   222u0d         -0.718646       0.516452
           8  ( 2:1:   2/   1)   22ud20         -0.164012       0.026900
          21  ( 2:1:   7/   2)   2u2d02          0.141594       0.020049
          33  ( 3:1:   3/   1)   220u2d         -0.111632       0.012462
 
  The CI coefficients for the MIXED state nr.   4
--------------------------------------------------------------------------------
 CI COEFFICIENTS LARGER THAN  0.10D+00
  Occupation of active orbitals, and spin coupling
  of open shells. (u,d: Spin up or down).
  SGUGA info is (Midvert:IsyUp:UpperWalk/LowerWalk)
        Conf  SGUGA info        Occupation    Coefficient         Weight
           9  ( 2:1:   3/   1)   22u20d          0.936777       0.877551
          15  ( 2:1:   1/   2)   2u22d0         -0.192463       0.037042
          32  ( 3:1:   2/   1)   2202ud         -0.166941       0.027869
          40  ( 3:1:   4/   2)   2ud202         -0.132430       0.017538
 
--
 
 ###############################################################################
 ###############################################################################
 ###                                                                         ###
 ###                                                                         ###
 ###    WARNING: RunFile label nBas                                          ###
 ###    was used      230 times                                              ###
 ###                                                                         ###
 ###                                                                         ###
 ###############################################################################
 ###############################################################################
--- Stop Module: caspt2 at Wed Mar 20 15:35:52 2024 /rc=_RC_ALL_IS_WELL_ ---
--- Module caspt2 spent 2 seconds ---

*** symbolic link created: INPORB -> MOLCAS.RasOrb
--- Start Module: mclr at Wed Mar 20 15:35:52 2024 ---
 
()()()()()()()()()()()()()()()()()()()()()()()()()()()()()()()()()()()()()()()()()()()()()()()()()()

                                               &MCLR

                                   only a single process is used
                       available to each process: 10 GB of memory, 1 thread?
                                            pid: 1177654
()()()()()()()()()()()()()()()()()()()()()()()()()()()()()()()()()()()()()()()()()()()()()()()()()()
 
 No .RLXPT2  or MCKINT  , I hope that is OK
 Seward mode is assumed, reading perturbation from ONEINT  
 OrdInt status: non-squared
 
++   Wave function specifications:
     -----------------------------
 
     Number of closed shell electrons             10
     Number of electrons in active shells          8
     Max number of holes in RAS1 space             0
     Max number of electrons in RAS3 space         0
     Number of inactive orbitals                   5
     Number of active orbitals                     6
     Number of secondary orbitals                 17
     Spin quantum number                         0.0
     State symmetry                                1
     Number of CI roots                            4
     States considered                             1     2     3     4
     Weights                                   0.250 0.250 0.250 0.250
 
     Symmetry species                              1
     Skipped sym. species                          0
     Frozen orbitals                               0
     Inactive orbitals                             5
     Active orbitals                               6
     RAS1 orbitals                                 0
     RAS2 orbitals                                 6
     RAS3 orbitals                                 0
     Deleted orbitals                              0
     Number of basis functions                    28
     Number of orbitals                           28
     Number of configurations                    105
     Number of combinations                      120
     Natural orbitals are used in the last CI
     RASSCF state energy =           -398.6937331064
     Size of explicit Hamiltonian in PCG:        100
--
 
     Convergence threshold=               1.0000E-04
     Max number of iterations in PCG:            200
     Using the Cho-MO Algorithm
     Calculating Lagrangian multipliers for CASPT2
     Lagrangian multipliers are calculated for state no.   1
 
 
  Reordering of the Cholesky vectors to full storage. 
  Elapsed time for the reordering section:   1.999999999999999E-002
  CPU time for the reordering section:   1.999999999999999E-002
 
 TIMING INFORMATION:   CPU(s)   %CPU   Elapsed(s)
 Transformation          0.01    1.0         0.00
 Generation              0.01    1.0         0.02
 TOTAL                   0.04    4.0         0.05
 
        Iteration       Delta           Res(kappa)       Res(CI)          DeltaK
            DeltaC
 Warning  perturbation number                      1  might diverge
            1      1.296495624E-01  3.690844871E-02  1.496852544E-02  3.815218904E-04  2.222866772E-04
            2      1.983200522E-02  1.256848212E-02  7.243942934E-03  3.803056449E-05  5.433175774E-05
            3      2.179868501E-03  3.383750399E-03  1.972969361E-03  4.964771520E-06  5.187389834E-06
            4      1.554286400E-03  1.254888954E-03  1.166764828E-03  5.972819623E-07  6.641396114E-06
            5      1.618270256E-04  6.437423330E-04  7.311427610E-04  1.400121804E-07  6.136544169E-07
            6      3.427306470E-05  5.228184494E-04  2.275909406E-04  8.564095726E-08  7.397678241E-08
            7      1.223397631E-05  2.264009133E-04  1.549339328E-04  1.534035980E-08  4.163615115E-08
            8      1.008542396E-05  2.558714643E-04  1.249490263E-04  1.502324785E-08  3.194694843E-08
            9      8.705143924E-06  1.503629944E-04  1.329097783E-04  8.385879753E-09  3.215602710E-08
           10      8.679735089E-06  2.481319995E-04  1.107005435E-04  1.467119726E-08  2.575237466E-08
           11      5.920440668E-06  1.817098189E-04  1.029415478E-04  8.411983300E-09  1.916090420E-08
           12      8.524543247E-06  9.564141440E-05  8.736877701E-05  2.649580592E-09  3.705122635E-08
      Perturbation no:    1 converged in   12 steps.
 
 
++    Molecular properties:
      ---------------------
 
      Charge (e):
                      =   -0.0000
      Dipole Moment (Debye):
      Origin of the operator (Ang)=    0.0000    0.0000    0.0000
                   X=  1.1050E-10               Y=  7.7337E-03               Z=  1.2210E+00           Total=  1.2210E+00
      Quadrupole Moment (Debye*Ang):
      Origin of the operator (Ang)=    0.0000    0.0000    0.0709
                  XX= -1.6716E+01              XY= -6.9787E-11              XZ= -1.0123E-10              YY= -1.3029E+01
                  YZ= -3.6276E-03              ZZ= -1.2642E+01
      In traceless form (Debye*Ang)
                  XX= -3.8810E+00              XY= -1.0468E-10              XZ= -1.5185E-10              YY=  1.6498E+00
                  YZ= -5.4414E-03              ZZ=  2.2311E+00
--
 
 
      The response parameters are written to the file RESP.
 ###############################################################################
 ###############################################################################
 ###                                                                         ###
 ###                                                                         ###
 ###    WARNING: RunFile label nBas                                          ###
 ###    was used       61 times                                              ###
 ###                                                                         ###
 ###                                                                         ###
 ###############################################################################
 ###############################################################################
--- Stop Module: mclr at Wed Mar 20 15:35:53 2024 /rc=_RC_ALL_IS_WELL_ ---

*** symbolic link created: INPORB -> MOLCAS.RasOrb
--- Start Module: alaska at Wed Mar 20 15:35:53 2024 ---
 
()()()()()()()()()()()()()()()()()()()()()()()()()()()()()()()()()()()()()()()()()()()()()()()()()()

                                              &ALASKA

                                   only a single process is used
                       available to each process: 10 GB of memory, 1 thread?
                                            pid: 1177708
()()()()()()()()()()()()()()()()()()()()()()()()()()()()()()()()()()()()()()()()()()()()()()()()()()
 
 
                     Threshold for contributions to the gradient: 0.100E-06
 
 
                    ********************************************
                    * Symmetry Adapted Cartesian Displacements *
                    ********************************************
 
 
           Irreducible representation : a  
           Basis function(s) of irrep: x, y, xy, Rz, z, xz, Ry, yz, Rx, I                                              
 
 Basis Label        Type   Center Phase
   1   S1           x         1     1
   2   S1           y         1     1
   3   S1           z         1     1
   4   H2           x         2     1
   5   H2           y         2     1
   6   H2           z         2     1
   7   H3           x         3     1
   8   H3           y         3     1
   9   H3           z         3     1
 
                     No automatic utilization of translational and rotational invariance of the energy is employed.
 
 RI-ERI gradients!
 
 Wavefunction type: State average CASPT2
 
 A total of 13025. entities were prescreened and 13025. were kept.
 A total of 260214. entities were prescreened and 247973. were kept.
 
 **************************************************
 *                                                *
 *              Molecular gradients               *
 *                                                *
 **************************************************
 
  Irreducible representation: a  
 ------------------------------------------------------------------------------------------
                              X                       Y                       Z
 ------------------------------------------------------------------------------------------
  S1               -2.98506469504963E-11    4.39133485079068E-04   -9.57174122463993E-02
  H2                2.32529303984223E-11    2.62450546207038E-02    4.75921606949141E-02
  H3                6.59771655207353E-12   -2.66841881057842E-02    4.81252515514794E-02
 ------------------------------------------------------------------------------------------
 
--- Stop Module: alaska at Wed Mar 20 15:35:53 2024 /rc=_RC_ALL_IS_WELL_ ---

.##################.
.# Happy landing! #.
.##################.

    Timing: Wall=5.56 User=4.74 System=0.68
