   This run of MOLCAS is using the pymolcas driver

                             OPE
                             OPE          NMOL  CASOP  ENMOLC A   SO
                 OPE        NMOLC        AS  OP EN  MO LC     AS  OP
                OPENM       OL CA        SO  PE NM  OL CA     SOP EN
                OP EN      MO   LC       AS  OP ENMOL  CASO   PENMOL
                OP  EN     MO   LC       AS  OP EN     MO     LC ASO
               OP   E  NMOL  C  AS       OP  EN MO     LC     AS  OP
               OP  E   NMO   LC AS        OPEN  MO     LCASOP EN   M
               O  PEN   MO  LCA  SO
            OPE   NMO   L   CAS    OP
        OPENMOL  CASOP     ENMOL   CASOPE
     OPENMOLCA   SOPENMOLCASOPEN   MOLCASOPE
    OPENMOLCAS   OP           EN   MOL    CAS
    OPENMOLCAS       OP  ENM        O     LCA
    OPENMOLCAS    OPEN  MOLCASO     P  E  NMO
    OPENMOLCAS     OP               E  N  MOL
    OPENMOLCA   SO           PENM   O  L  CAS    OPEN    MO    LCAS
    OPENMOLCA   SOP           ENM   O  L  CAS   OP  EN  MOLC  AS   O
    OPENMOLCA   SOPE           NM      O  LCA   S      OP  EN MO
    OPENMOLC                AS         O  PEN   M      OL  CA  SOPE
    OPENMO        LCASOPE  NMOL        C  ASO   P      ENMOLC     AS
    OPE     NMO      LCA  SO     P     E   NM   OL  CA SO  PE N   MO
          OPENMOLCA            SOPE   NMO        LCAS  O    P  ENMO
     OPENMOLCASOPENMOLCASOPENMOLCASOPENMOLCA
        OPENMOLCASOPENMOLCASOPENMOLCASOPE
            OPENMOLCASOPENMOLCASOPENM
               OPENMOLCASOPENMOLCA        version: v23.10
                   OPENMOLCASO
                       OPE                tag:

 OpenMolcas is free software; you can redistribute it and/or modify it
 under the terms of the GNU Lesser General Public License version 2.1.
 OpenMolcas is distributed in the hope that it will be useful, but it
 is provided "as is" and without any express or implied warranties.
 For more details see the full text of the license in the file
 LICENSE or in <http://www.gnu.org/licenses/>.

                 Copyright (C) The OpenMolcas Authors
           For the author list and the recommended citation,
                   consult the file CONTRIBUTORS.md

           *************************************************
           * pymolcas version py2.25                       *
           *   build 2b27fa14244bdc32cb1957e6230cd793      *
           *   (after the EMIL interpreter by V. Veryazov) *
           *************************************************

configuration info
------------------
Host name: manganese.itc.univie.ac.at (Linux)
C Compiler ID: Clang
C flags: -std=gnu99
Fortran Compiler ID: Intel
Fortran flags: -fpp -i8 -heap-arrays
Definitions: _MOLCAS_;_I8_;_LINUX_
Parallel: OFF (GA=OFF)


   ----------------------------------------------------------------------------------
  |
  |           Project: MOLCAS
  |    Submitted from: /public/manganese/scratch/tmp/sascha.925337/WORK/nacdr_2_1_2_2
  |      Scratch area: /public/manganese/scratch/tmp/sascha.925337/WORK/nacdr_2_1_2_2
  |   Save outputs to: WORKDIR
  |            Molcas: /usr/license/openmolcas/v23.10
  |
  | Scratch area is NOT empty
  |
  |        MOLCASMEM = 10000
  |    MOLCAS_DRIVER = /usr/license/openmolcas/v23.10/pymolcas
  |    MOLCAS_NPROCS = 1
  |    MOLCAS_SOURCE = /usr/license/openmolcas/v23.10
  | MOLCAS_STRUCTURE = 0
  |
   ----------------------------------------------------------------------------------

++ ---------   Input file   ---------

>>> COPY $master_path/MOLCAS.2.JobIph MOLCAS.2.JobIph

>>> COPY MOLCAS.2.JobIph JOBOLD

&RASSCF
SPIN=2
NACTEL=7 0 0
INACTIVE=5
RAS2=6
ITERATIONS=200,100
CIROOT=2 2 1
THRS=0.000000010000 0.000100000000 0.000100000000
JOBIPH

&CASPT2
SHIFT=0.0
IMAGINARY= 0.000
IPEASHIFT= 0.00
MAXITER=120
XMULTISTATE= 2 1 2
OUTPUT=BRIEF
PRWF=0.1
GRDT
nac = 1 2

&ALASKA
nac=1 2

>>> COPY MOLCAS.2.JobIph JOB001

>>> COPY MOLCAS.JobIph JOB002

&RASSI
NROFJOBIPHS
2 2 2
1 2
1 2
MEIN
EJOB
OVERLAPS

-- ----------------------------------

>>> COPY /public/manganese/scratch/tmp/sascha.925337/WORK/master/MOLCAS.2.JobIph MOLCAS.2.JobIph

>>> COPY MOLCAS.2.JobIph JOBOLD

--- Start Module: rasscf at Wed Mar 20 15:35:48 2024 ---
 
()()()()()()()()()()()()()()()()()()()()()()()()()()()()()()()()()()()()()()()()()()()()()()()()()()

                                              &RASSCF

                                   only a single process is used
                       available to each process: 10 GB of memory, 1 thread?
                                            pid: 1177530
()()()()()()()()()()()()()()()()()()()()()()()()()()()()()()()()()()()()()()()()()()()()()()()()()()
 
 
      Header of the ONEINT file:
      --------------------------
      
      Integrals generated by Gateway/Seward, Wed Mar 20 15:35:38 2024
 
 
      OrdInt status: non-squared
 
 
      Cartesian coordinates in Angstrom:
      -----------------------------------------------------
      No.  Label        X            Y            Z        
      -----------------------------------------------------
       1   S1         0.00000000   0.00000000   0.00084100
       2   H2         0.00000000   0.97479900   1.18293400
       3   H3         0.00000000  -0.97479900   1.18293400
      -----------------------------------------------------
      Nuclear repulsion energy =   11.32343694
 
++    Wave function specifications:
      -----------------------------
 
      Number of closed shell electrons          10
      Number of electrons in active shells       7
      Max number of holes in RAS1 space          0
      Max nr of electrons in RAS3 space          0
      Number of inactive orbitals                5
      Number of active orbitals                  6
      Number of secondary orbitals              17
      Spin quantum number                      0.5
      State symmetry                             1
--
 
++    Orbital specifications:
      -----------------------
 
      Symmetry species                           1
                                                 a
      Frozen orbitals                            0
      Inactive orbitals                          5
      Active orbitals                            6
      RAS1 orbitals                              0
      RAS2 orbitals                              6
      RAS3 orbitals                              0
      Secondary orbitals                        17
      Deleted orbitals                           0
      Number of basis functions                 28
--
 
++    CI expansion specifications:
      ----------------------------
 
      Number of CSFs                           210
      Number of determinants                   300
      Number of root(s) required                 2
      Root chosen for geometry opt.              2
      CI roots used                              1     2
      weights                                0.500 0.500
      highest root included in the CI            2
      max. size of the explicit Hamiltonian    200
--
 
++    Optimization specifications:
      ----------------------------
 
      RASSCF algorithm: LK RI/DF
      Maximum number of macro iterations       200
      Maximum number of SX iterations          100
      Threshold for RASSCF energy            0.100E-07
      Threshold for max MO rotation          0.100E-03
      Threshold for max BLB element          0.100E-03
      Level shift parameter                  0.500E+00
      Make Quasi-Newton update
--
 
      The MO-coefficients are taken from the file:
      JOBOLD
      Title:(No title given)                                                        
 
      Total molecular charge    1.00
 
      ************************************************************************************************************************
      *                                                                                                                      *
      *                                            Wave function control section                                             *
      *                                                                                                                      *
      ************************************************************************************************************************
 
 
                                         RASSCF iterations: Energy and convergence statistics
                                         ----------------------------------------------------
 
      Iter CI   SX   CI       RASSCF       Energy    max ROT     max BLB   max BLB  Level Ln srch  Step   QN   Walltime
          iter iter root      energy       change     param      element    value   shift minimum  type update hh:mm:ss
 Nr of preliminary CI iterations:   3
        1   1    3    0  -398.30489681    0.00E+00  -0.28E-04    7  16 1 -0.38E-05   0.00   0.00    SX    NO    0:00:00
        2   1    2    0  -398.30489681   -0.26E-09  -0.12E-04    7  28 1  0.12E-05   0.00   0.00    SX    NO    0:00:00
        3   1    2    0  -398.30489681   -0.45E-10  -0.53E-05    7  28 1  0.62E-06   0.00   0.00    SX    NO    0:00:00
        4   3    2    0  -398.30489681   -0.12E-08  -0.11E-04    7  16 1 -0.14E-05   0.00   0.00    SX    NO    0:00:00
      Convergence after  4 iterations
        5   1    2    0  -398.30489681   -0.39E-10  -0.11E-04    7  28 1  0.50E-06   0.00   0.00    SX    NO    0:00:00
 
      ************************************************************************************************************************
                                                      Wave function printout:
                       occupation of active orbitals, and spin coupling of open shells (u,d: Spin up or down)
      ************************************************************************************************************************
 
      Note: transformation to natural orbitals
      has been made, which may change the order of the CSFs.
 
      printout of CI-coefficients larger than  0.05 for root  1
      energy=    -398.370399
      conf/sym  111111     Coeff  Weight
             1  222u00  -0.97458 0.94981
            14  2u2du0  -0.06175 0.00381
            26  u22d0u  -0.05310 0.00282
            32  220u20  -0.07165 0.00513
            37  220u02  -0.06330 0.00401
            42  2ududu  -0.06134 0.00376
            44  2uduud  -0.09942 0.00988
            56  202u20  -0.10693 0.01143
 
      printout of CI-coefficients larger than  0.05 for root  2
      energy=    -398.239395
      conf/sym  111111     Coeff  Weight
             4  22u200  -0.97424 0.94913
            39  2ud2u0   0.06371 0.00406
            49  u2d20u   0.06840 0.00468
            57  20220u   0.07138 0.00510
            63  ud22u0   0.07959 0.00634
           107  2u02du  -0.05248 0.00275
           109  2u02ud  -0.05783 0.00334
           124  20u220  -0.10810 0.01169
           129  20u202  -0.05017 0.00252
           136  udu2ud  -0.05387 0.00290
 
      Natural orbitals and occupation numbers for root  1
      sym 1:   1.994833   1.950589   1.960837   1.000000   0.056261   0.037481
 
      Natural orbitals and occupation numbers for root  2
      sym 1:   1.977852   1.938963   1.006336   1.997828   0.047711   0.031311
 
      ************************************************************************************************************************
      *                                                                                                                      *
      *                                                    Final results                                                     *
      *                                                                                                                      *
      ************************************************************************************************************************
 
 
++    Wave function specifications:
      -----------------------------
 
      Number of closed shell electrons          10
      Number of electrons in active shells       7
      Max number of holes in RAS1 space          0
      Max nr of electrons in RAS3 space          0
      Number of inactive orbitals                5
      Number of active orbitals                  6
      Number of secondary orbitals              17
      Spin quantum number                      0.5
      State symmetry                             1
--
 
++    Orbital specifications:
      -----------------------
 
      Symmetry species                           1
                                                 a
      Frozen orbitals                            0
      Inactive orbitals                          5
      Active orbitals                            6
      RAS1 orbitals                              0
      RAS2 orbitals                              6
      RAS3 orbitals                              0
      Secondary orbitals                        17
      Deleted orbitals                           0
      Number of basis functions                 28
--
 
++    CI expansion specifications:
      ----------------------------
 
      Number of CSFs                           210
      Number of determinants                   300
      Number of root(s) required                 2
      CI roots used                              1     2
      weights                                0.500 0.500
      highest root included in the CI            2
      Root passed to geometry opt.               2
--
 
++    Final optimization conditions:
      ------------------------------
 
      Average CI energy                            -398.30489681
      RASSCF energy for state  2                   -398.23939484
      Super-CI energy                                -0.00000000
      RASSCF energy change                            0.00000000
      Max change in MO coefficients              -0.134E-04
      Max non-diagonal density matrix element    -0.111E-04
      Maximum BLB matrix element                  0.498E-06
      (orbital pair   7,  28 in symmetry   1)
      Norm of electronic gradient            0.472E-01
--
 
 
      Final state energy(ies):
      ------------------------
 
::    RASSCF root number  1 Total energy:   -398.37039879
::    RASSCF root number  2 Total energy:   -398.23939484
 
++    Molecular orbitals:
      -------------------
 
      Pseudonatural active orbitals and approximate occupation numbers
 
 
 
 
      Molecular orbitals for symmetry species 1: a  
 
 
      Orbital                 1         2         3         4         5         6         7         8         9        10
      Energy           -92.3628   -9.3574   -7.0373   -7.0367   -7.0358   -1.2643   -0.0000   -0.0000   -0.0012   -0.0000
      Occ. No.           2.0000    2.0000    2.0000    2.0000    2.0000    1.9839    1.9444    1.4860    1.4989    0.0524
 
     1 S1     1s         1.0000    0.0002    0.0000   -0.0000    0.0000    0.0035    0.0000   -0.0033    0.0000   -0.0000
     2 S1     2s         0.0001    1.0011   -0.0018    0.0000   -0.0000    0.0245    0.0000   -0.0299   -0.0000   -0.0000
     3 S1     3s         0.0003    0.0025    0.0061   -0.0000    0.0000    0.9771    0.0000   -0.4451   -0.0000   -0.0000
     4 S1     *s        -0.0003   -0.0047   -0.0018    0.0000   -0.0000   -0.1057    0.0000    0.0146    0.0000    0.0000
     5 S1     2px       -0.0000    0.0000   -0.0000   -0.0000    0.9999   -0.0000   -0.0000   -0.0000    0.0095   -0.0000
     6 S1     3px       -0.0000    0.0000    0.0000    0.0000   -0.0015    0.0000    0.0000    0.0000    1.0798   -0.0000
     7 S1     *px        0.0000   -0.0000   -0.0000   -0.0000    0.0012    0.0000    0.0000    0.0000   -0.0960    0.0000
     8 S1     2py       -0.0000   -0.0000    0.0000    1.0000    0.0000    0.0000   -0.0032    0.0000    0.0000    0.0573
     9 S1     3py        0.0000   -0.0000    0.0000    0.0028    0.0000    0.0000    0.7966    0.0000    0.0000    1.1431
    10 S1     *py       -0.0000    0.0000   -0.0000   -0.0008   -0.0000    0.0000   -0.1505   -0.0000    0.0000   -0.3490
    11 S1     2pz        0.0000    0.0025    1.0000   -0.0000    0.0000   -0.0099    0.0000    0.0004    0.0000   -0.0000
    12 S1     3pz        0.0001    0.0018    0.0018   -0.0000    0.0000    0.1225   -0.0000    0.8318   -0.0000   -0.0000
    13 S1     *pz       -0.0001   -0.0030   -0.0012    0.0000   -0.0000   -0.0231    0.0000   -0.1410   -0.0000    0.0000
    14 S1     *d2-      -0.0000   -0.0000    0.0000    0.0000   -0.0000   -0.0000   -0.0000   -0.0000    0.0000   -0.0000
    15 S1     *d1-       0.0000    0.0000    0.0000    0.0005    0.0000    0.0000    0.0770    0.0000   -0.0000   -0.0837
    16 S1     *d0        0.0000    0.0001    0.0002   -0.0000   -0.0000    0.0100   -0.0000    0.0250    0.0000   -0.0000
    17 S1     *d1+      -0.0000   -0.0000    0.0000   -0.0000    0.0001   -0.0000   -0.0000    0.0000    0.0172   -0.0000
    18 S1     *d2+      -0.0000   -0.0001   -0.0002    0.0000   -0.0000   -0.0107    0.0000   -0.0226    0.0000   -0.0000
    19 H2     1s         0.0000   -0.0001    0.0020    0.0024    0.0000    0.2471    0.5095    0.4033   -0.0000   -0.9501
    20 H2     *s         0.0001    0.0019   -0.0007   -0.0006   -0.0000   -0.1169   -0.1526   -0.1345    0.0000    0.3369
    21 H2     *px        0.0000   -0.0000    0.0000   -0.0000    0.0000    0.0000    0.0000    0.0000    0.0161   -0.0000
    22 H2     *py        0.0000    0.0004   -0.0001   -0.0001   -0.0000   -0.0153   -0.0111   -0.0225    0.0000    0.0394
    23 H2     *pz        0.0000    0.0004   -0.0001   -0.0002    0.0000   -0.0160   -0.0239   -0.0087    0.0000    0.0369
    24 H3     1s         0.0000   -0.0001    0.0020   -0.0024    0.0000    0.2471   -0.5095    0.4033    0.0000    0.9502
    25 H3     *s         0.0001    0.0019   -0.0007    0.0006    0.0000   -0.1169    0.1526   -0.1345    0.0000   -0.3369
    26 H3     *px       -0.0000    0.0000   -0.0000    0.0000    0.0000    0.0000    0.0000   -0.0000    0.0161   -0.0000
    27 H3     *py       -0.0000   -0.0004    0.0001   -0.0001   -0.0000    0.0153   -0.0111    0.0225   -0.0000    0.0394
    28 H3     *pz        0.0000    0.0004   -0.0001    0.0002   -0.0000   -0.0160    0.0239   -0.0087    0.0000   -0.0369
 
 
      Orbital                11        12
      Energy             0.0076    0.1499
      Occ. No.           0.0345    0.0000
 
     1 S1     1s        -0.0115    0.0100
     2 S1     2s        -0.0970    0.0645
     3 S1     3s        -0.6148   -0.0332
     4 S1     *s         0.1446   -0.8938
     5 S1     2px       -0.0000    0.0000
     6 S1     3px       -0.0000    0.0000
     7 S1     *px        0.0000   -0.0000
     8 S1     2py        0.0000   -0.0000
     9 S1     3py       -0.0000   -0.0000
    10 S1     *py       -0.0000    0.0000
    11 S1     2pz       -0.0639    0.0402
    12 S1     3pz       -1.1412    0.2249
    13 S1     *pz        0.3715   -0.8560
    14 S1     *d2-       0.0000   -0.0000
    15 S1     *d1-       0.0000   -0.0000
    16 S1     *d0        0.1810   -0.2874
    17 S1     *d1+       0.0000   -0.0000
    18 S1     *d2+      -0.0499    0.1646
    19 H2     1s         0.9962   -0.7918
    20 H2     *s        -0.3839    1.5609
    21 H2     *px        0.0000   -0.0000
    22 H2     *py       -0.0469    0.0024
    23 H2     *pz       -0.0309   -0.0160
    24 H3     1s         0.9962   -0.7918
    25 H3     *s        -0.3839    1.5609
    26 H3     *px       -0.0000    0.0000
    27 H3     *py        0.0469   -0.0024
    28 H3     *pz       -0.0309   -0.0160
--
 
      Von Neumann Entropy (Root   1) =  0.81934
 

      Mulliken population analysis for root number:  1
      -----------------------------------------------
 
 
++    Molecular charges:
      ------------------
 
      Mulliken charges per centre and basis function type
      ---------------------------------------------------
 
                S1      H2      H3    
      1s       2.0000  1.0772  1.0772
      2s       2.0023  0.0000  0.0000
      2px      1.9998  0.0000  0.0000
      2pz      2.0001  0.0000  0.0000
      2py      2.0000  0.0000  0.0000
      3s       2.1101  0.0000  0.0000
      3px      1.0785  0.0000  0.0000
      3pz      1.5590  0.0000  0.0000
      3py      1.4437  0.0000  0.0000
      *s      -0.1974 -0.3350 -0.3350
      *px     -0.0836  0.0025  0.0025
      *pz     -0.2473  0.0136  0.0136
      *py     -0.2569  0.0110  0.0110
      *d2+     0.0048  0.0000  0.0000
      *d1+     0.0004  0.0000  0.0000
      *d0      0.0078  0.0000  0.0000
      *d1-     0.0400  0.0000  0.0000
      *d2-     0.0000  0.0000  0.0000
      Total   15.4613  0.7693  0.7694
 
      N-E      0.5387  0.2307  0.2306
 
      Total electronic charge=   17.000000
 
      Total            charge=    1.000000
--
 
 

      Expectation values of various properties for root number:  1
      -----------------------------------------------------------
 
 
++    Molecular properties:
      ---------------------
 
      Charge (e):
                      =    1.0000
      Dipole Moment (Debye):
      Origin of the operator (Ang)=    0.0000    0.0000    0.0000
                   X= -7.8372E-13               Y=  2.2963E-06               Z=  2.6173E+00           Total=  2.6173E+00
      Center of Charge (Ang)
                     X=   -0.00000000               Y=    0.00000048               Z=    0.54491711
      Quadrupole Moment (Debye*Ang):
      Origin of the operator (Ang)=    0.0000    0.0000    0.0709
                  XX= -1.1643E+01              XY= -1.0950E-12              XZ= -3.2896E-13              YY= -9.5521E+00
                  YZ=  4.0238E-06              ZZ= -8.8148E+00
      In traceless form (Debye*Ang)
                  XX= -2.4596E+00              XY= -1.6424E-12              XZ= -4.9344E-13              YY=  6.7678E-01
                  YZ=  6.0358E-06              ZZ=  1.7829E+00
--
 

      Mulliken spin population analysis for root number:  1
      ---------------------------------------------------
 
 
++    Molecular charges:
      ------------------
 
      Mulliken spin population per centre and basis function type
      ---------------------------------------------------
 
                S1      H2      H3    
      1s      -0.0000 -0.0685 -0.0685
      2s       0.0000  0.0000  0.0000
      2px      0.0000  0.0000  0.0000
      2pz     -0.0000  0.0000  0.0000
      2py     -0.0000  0.0000  0.0000
      3s       0.0317  0.0000  0.0000
      3px      1.0687  0.0000  0.0000
      3pz      0.0313  0.0000  0.0000
      3py      0.0764  0.0000  0.0000
      *s      -0.0059  0.0218  0.0218
      *px     -0.0831  0.0025  0.0025
      *pz     -0.0081 -0.0004 -0.0004
      *py     -0.0177 -0.0004 -0.0004
      *d2+    -0.0003  0.0000  0.0000
      *d1+     0.0004  0.0000  0.0000
      *d0     -0.0007  0.0000  0.0000
      *d1-    -0.0028  0.0000  0.0000
      *d2-     0.0000  0.0000  0.0000
      Total    1.0899 -0.0449 -0.0449
 
      Total electronic spin=    1.000000
--
 
 
      Von Neumann Entropy (Root   2) =  0.78185
 

      Mulliken population analysis for root number:  2
      -----------------------------------------------
 
 
++    Molecular charges:
      ------------------
 
      Mulliken charges per centre and basis function type
      ---------------------------------------------------
 
                S1      H2      H3    
      1s       2.0000  0.9689  0.9689
      2s       2.0023  0.0000  0.0000
      2px      1.9998  0.0000  0.0000
      2pz      2.0001  0.0000  0.0000
      2py      2.0000  0.0000  0.0000
      3s       1.9606  0.0000  0.0000
      3px      2.1546  0.0000  0.0000
      3pz      0.8231  0.0000  0.0000
      3py      1.3547  0.0000  0.0000
      *s      -0.1900 -0.3075 -0.3075
      *px     -0.1672  0.0050  0.0050
      *pz     -0.1301  0.0137  0.0137
      *py     -0.2368  0.0084  0.0084
      *d2+     0.0032  0.0000  0.0000
      *d1+     0.0008  0.0000  0.0000
      *d0      0.0056  0.0000  0.0000
      *d1-     0.0425  0.0000  0.0000
      *d2-     0.0000  0.0000  0.0000
      Total   15.6230  0.6885  0.6885
 
      N-E      0.3770  0.3115  0.3115
 
      Total electronic charge=   17.000000
 
      Total            charge=    1.000000
--
 
 

      Expectation values of various properties for root number:  2
      -----------------------------------------------------------
 
 
++    Molecular properties:
      ---------------------
 
      Charge (e):
                      =    1.0000
      Dipole Moment (Debye):
      Origin of the operator (Ang)=    0.0000    0.0000    0.0000
                   X= -5.2946E-13               Y=  1.9387E-05               Z=  2.5758E+00           Total=  2.5758E+00
      Center of Charge (Ang)
                     X=   -0.00000000               Y=    0.00000404               Z=    0.53627135
      Quadrupole Moment (Debye*Ang):
      Origin of the operator (Ang)=    0.0000    0.0000    0.0709
                  XX= -1.4163E+01              XY= -4.0857E-12              XZ= -4.0965E-13              YY= -8.9685E+00
                  YZ=  4.1939E-05              ZZ= -6.1886E+00
      In traceless form (Debye*Ang)
                  XX= -6.5841E+00              XY= -6.1286E-12              XZ= -6.1447E-13              YY=  1.2071E+00
                  YZ=  6.2909E-05              ZZ=  5.3769E+00
--
 

      Mulliken spin population analysis for root number:  2
      ---------------------------------------------------
 
 
++    Molecular charges:
      ------------------
 
      Mulliken spin population per centre and basis function type
      ---------------------------------------------------
 
                S1      H2      H3    
      1s       0.0000  0.2264  0.2264
      2s       0.0000  0.0000  0.0000
      2px      0.0000  0.0000  0.0000
      2pz      0.0000  0.0000  0.0000
      2py      0.0000  0.0000  0.0000
      3s       0.0832  0.0000  0.0000
      3px      0.0000  0.0000  0.0000
      3pz      0.7387  0.0000  0.0000
      3py     -0.0665  0.0000  0.0000
      *s       0.0046 -0.0645 -0.0645
      *px     -0.0000  0.0000  0.0000
      *pz     -0.1160  0.0005  0.0005
      *py      0.0162  0.0031  0.0031
      *d2+     0.0020  0.0000  0.0000
      *d1+     0.0000  0.0000  0.0000
      *d0      0.0034  0.0000  0.0000
      *d1-     0.0034  0.0000  0.0000
      *d2-     0.0000  0.0000  0.0000
      Total    0.6690  0.1655  0.1655
 
      Total electronic spin=    1.000000
--
 
 
 
      Input file to MOLDEN was generated!
 
 
      Input file to MOLDEN was generated!
 
 
      Input file to MOLDEN was generated!
 
      Average orbitals are written to the RASORB file
      Natural orbitals for root   1 are written to the RASORB.1 file
      Natural orbitals for root   2 are written to the RASORB.2 file
      Spin density orbitals for root   1 are written to the SPDORB.1 file
      Spin density orbitals for root   2 are written to the SPDORB.2 file
 
--- Stop Module: rasscf at Wed Mar 20 15:35:49 2024 /rc=_RC_ALL_IS_WELL_ ---
--- Module rasscf spent 1 second ---

*** symbolic link created: INPORB -> MOLCAS.RasOrb
--- Start Module: caspt2 at Wed Mar 20 15:35:49 2024 ---
 
()()()()()()()()()()()()()()()()()()()()()()()()()()()()()()()()()()()()()()()()()()()()()()()()()()

                                              &CASPT2

                                   only a single process is used
                       available to each process: 10 GB of memory, 1 thread?
                                            pid: 1177558
()()()()()()()()()()()()()()()()()()()()()()()()()()()()()()()()()()()()()()()()()()()()()()()()()()
 
 
++    Wave function specifications:
      -----------------------------
 
      Number of closed shell electrons           0
      Number of electrons in active shells       7
      Max number of holes in RAS1 space          0
      Max number of electrons in RAS3 space      0
      Number of inactive orbitals                0
      Number of active orbitals                  6
      Number of secondary orbitals              17
      Spin quantum number                      0.5
      State symmetry                             1
      Number of CSFs                           210
      Number of CASSCF root(s) available         2
      CASPT2 state passed to geometry opt.       2
      A file JOBMIX will be created
      This is a MULTI-STATE CASSCF reference
      Number of CI roots used                    2
      These are:                                 1   2
      Off-diagonal elements of Heff are computed
--
 
++    Orbital specifications:
      -----------------------
 
      Symmetry species                           1
                                                 a
      Frozen orbitals                            5
      Inactive orbitals                          0
      Active orbitals                            6
      Secondary orbitals                        17
      Deleted orbitals                           0
      Number of basis functions                 28
--
 
++    CASPT2 specifications:
      ----------------------
 
      Type of calculation                        XMS-CASPT2
      Fock operator                              state-average
      IPEA shift                                 0.00
      Real shift                                 0.00
      Imaginary shift                            0.00
      The input orbitals will be transformed to quasi-canonical
      The input states will be rotated to diagonalize the Fock operator
      Quantities for analytical NAC without CSF term will be calculated
--
 
--------------------------------------------------------------------------------
 Estimated memory requirements:
  POLY3 :                   264794
  RHS:                      259460
  SIGMA :                   264688
  PRPCTL:                        0
 Available workspace:   1124989812
 
++ CASPT2 computation for group   1
 
********************************************************************************
 Multi-State initialization phase begins for group   1
--------------------------------------------------------------------------------
 
  H0 in the original model space basis:
                1               2
   1       -6.19138675     -0.00000000
   2       -0.00000000     -6.07766744
 
  H0 eigenvectors:
                1               2
   1        1.00000000     -0.00000000
   2        0.00000000      1.00000000
 
********************************************************************************
 Compute H0 matrices for state    1
--------------------------------------------------------------------------------
--------------------------------------------------------------------------------
 H0 matrices have been computed.
 
********************************************************************************
  CASPT2 EQUATION SOLUTION
--------------------------------------------------------------------------------
 
  Total nr of CASPT2 parameters:
   Before reduction:        8925
   After  reduction:        8585
 
 Variance of |WF0>:       0.2341825650
 
 The contributions to the second order correlation energy in atomic units.
-----------------------------------------------------------------------------------------------------------------------------
  IT.      VJTU        VJTI        ATVX        AIVX        VJAI        BVAT        BJAT        BJAI        TOTAL       RNORM  
-----------------------------------------------------------------------------------------------------------------------------
   1     0.000000    0.000000   -0.046633    0.000000    0.000000   -0.049039    0.000000    0.000000   -0.095671    0.003965
   2     0.000000    0.000000   -0.047063    0.000000    0.000000   -0.049091    0.000000    0.000000   -0.096154    0.000214
   3     0.000000    0.000000   -0.047065    0.000000    0.000000   -0.049092    0.000000    0.000000   -0.096157    0.000030
   4     0.000000    0.000000   -0.047064    0.000000    0.000000   -0.049092    0.000000    0.000000   -0.096156    0.000003
-----------------------------------------------------------------------------------------------------------------------------
 
  FINAL CASPT2 RESULT:
 
      Reference energy:        -398.3703987882
      E2 (Non-variational):      -0.0961560629
      E2 (Variational):          -0.0961560738
      Total energy:            -398.4665548620
      Residual norm:              0.0000003841
      Reference weight:           0.95877
 
      Contributions to the CASPT2 correlation energy
      Active & Virtual Only:         -0.0961560629
      One Inactive Excited:           0.0000000000
      Two Inactive Excited:           0.0000000000
 
 
++ Denominators, etc.
--------------------------------------------------------------------------------------------------------------
 Report on small energy denominators, large coefficients, and large energy contributions.
CASE  SYMM ACTIVE-MIX  NON-ACTIVE INDICES          DENOMINATOR     RHS VALUE       COEFFICIENT     CONTRIBUTION
ATVX     1  Mu1.0023  Se1.017                       1.82430275      0.07237750     -0.04048040     -0.00292987
ATVX     1  Mu1.0016  Se1.018                       1.76682574     -0.05815435      0.03285007     -0.00191037
ATVX     1  Mu1.0018  Se1.018                       1.78615588     -0.04579295      0.02546377     -0.00116606
ATVX     1  Mu1.0012  Se1.019                       1.68172052     -0.04693732      0.02893089     -0.00135794
ATVX     1  Mu1.0026  Se1.019                       1.87812714      0.07160007     -0.03803888     -0.00272359
ATVX     1  Mu1.0011  Se1.020                       1.67689508      0.06031428     -0.03593195     -0.00216721
ATVX     1  Mu1.0050  Se1.021                       2.60567086     -0.07297635      0.02835728     -0.00206941
ATVX     1  Mu1.0011  Se1.022                       1.99294020      0.05112452     -0.02555064     -0.00130626
BVATP    1  Mu1.0005  Se1.017 Se1.017               2.40694129     -0.06380970      0.02653413     -0.00169313
BVATM    1  Mu1.0002  Se1.019 Se1.017               2.27389477      0.06046328     -0.02663080     -0.00161019
--
********************************************************************************
 Compute H0 matrices for state    2
--------------------------------------------------------------------------------
--------------------------------------------------------------------------------
 H0 matrices have been computed.
 
********************************************************************************
  CASPT2 EQUATION SOLUTION
--------------------------------------------------------------------------------
 
  Total nr of CASPT2 parameters:
   Before reduction:        8925
   After  reduction:        8823
 
 Variance of |WF0>:       0.2324329609
 
 The contributions to the second order correlation energy in atomic units.
-----------------------------------------------------------------------------------------------------------------------------
  IT.      VJTU        VJTI        ATVX        AIVX        VJAI        BVAT        BJAT        BJAI        TOTAL       RNORM  
-----------------------------------------------------------------------------------------------------------------------------
   1     0.000000    0.000000   -0.042743    0.000000    0.000000   -0.056744    0.000000    0.000000   -0.099487    0.003884
   2     0.000000    0.000000   -0.043169    0.000000    0.000000   -0.056787    0.000000    0.000000   -0.099956    0.000197
   3     0.000000    0.000000   -0.043170    0.000000    0.000000   -0.056788    0.000000    0.000000   -0.099958    0.000024
   4     0.000000    0.000000   -0.043170    0.000000    0.000000   -0.056788    0.000000    0.000000   -0.099957    0.000003
-----------------------------------------------------------------------------------------------------------------------------
 
  FINAL CASPT2 RESULT:
 
      Reference energy:        -398.2393948356
      E2 (Non-variational):      -0.0999574614
      E2 (Variational):          -0.0999574741
      Total energy:            -398.3393523097
      Residual norm:              0.0000004150
      Reference weight:           0.95500
 
      Contributions to the CASPT2 correlation energy
      Active & Virtual Only:         -0.0999574614
      One Inactive Excited:           0.0000000000
      Two Inactive Excited:           0.0000000000
 
 
++ Denominators, etc.
--------------------------------------------------------------------------------------------------------------
 Report on small energy denominators, large coefficients, and large energy contributions.
CASE  SYMM ACTIVE-MIX  NON-ACTIVE INDICES          DENOMINATOR     RHS VALUE       COEFFICIENT     CONTRIBUTION
ATVX     1  Mu1.0022  Se1.015                       1.69511029      0.05957860     -0.03422900     -0.00203932
ATVX     1  Mu1.0014  Se1.017                       1.60236151     -0.04718528      0.02942995     -0.00138866
ATVX     1  Mu1.0030  Se1.017                       1.82602537      0.05417239     -0.03061319     -0.00165839
ATVX     1  Mu1.0003  Se1.018                       1.02774036     -0.03715641      0.03622534     -0.00134600
ATVX     1  Mu1.0010  Se1.018                       1.53894973     -0.06848644      0.04443531     -0.00304322
ATVX     1  Mu1.0016  Se1.019                       1.68888516      0.05400430     -0.03308118     -0.00178653
BVATP    1  Mu1.0001  Se1.015 Se1.015               1.99307102     -0.07026141      0.03501281     -0.00246005
BVATP    1  Mu1.0001  Se1.018 Se1.018               2.10693241     -0.07801262      0.03701415     -0.00288757
BVATP    1  Mu1.0001  Se1.019 Se1.019               2.13254789     -0.07907227      0.03707878     -0.00293190
BVATP    1  Mu1.0001  Se1.020 Se1.020               2.17642161     -0.05448376      0.02641607     -0.00143925
BVATM    1  Mu1.0002  Se1.019 Se1.017               2.26737799     -0.08212089      0.03626637     -0.00297823
BVATM    1  Mu1.0002  Se1.020 Se1.019               2.33750916      0.06154342     -0.02728388     -0.00167914
--
--
 
  Total CASPT2 energies:
 
  State-specific CASPT2 energies obtained using
  rotated states do not have a well-defined physical
  meaning, however they can be extracted from the
  diagonal of the effective Hamiltonian.
 
++ Multi-State CASPT2 section:
********************************************************************************
  MULTI-STATE CASPT2 SECTION
--------------------------------------------------------------------------------
 
  Output diagonal energies have been shifted. Add   -398.000000000000     
 
  Effective Hamiltonian matrix (Symmetric):
 
                1               2
   1        -0.46655486
   2         0.00000000     -0.33935231
 
       Total XMS-CASPT2 energies:
::    XMS-CASPT2 Root  1     Total energy:   -398.46655486
::    XMS-CASPT2 Root  2     Total energy:   -398.33935231
 
       Eigenvectors:
            1.00000000      0.00000000
           -0.00000000      1.00000000
 
       In terms of the input states:
            1.00000000      0.00000000
           -0.00000000      1.00000000
 
--
 
********************************************************************************
 SECOND RUN to compute analytical gradients/NAC quantities
--------------------------------------------------------------------------------
 
++ CASPT2 computation for group   1
 
********************************************************************************
 Multi-State initialization phase begins for group   1
--------------------------------------------------------------------------------
 
  H0 in the original model space basis:
                1               2
   1       -6.19138675     -0.00000000
   2       -0.00000000     -6.07766744
 
  H0 eigenvectors:
                1               2
   1        1.00000000      0.00000000
   2        0.00000000      1.00000000
 
********************************************************************************
 Compute H0 matrices for state    1
--------------------------------------------------------------------------------
--------------------------------------------------------------------------------
 H0 matrices have been computed.
 
********************************************************************************
  CASPT2 EQUATION SOLUTION (SECOND RUN)
--------------------------------------------------------------------------------
 
  Total nr of CASPT2 parameters:
   Before reduction:        8925
   After  reduction:        8585
 
 Variance of |WF0>:       0.2341825650
 
 The contributions to the second order correlation energy in atomic units.
-----------------------------------------------------------------------------------------------------------------------------
  IT.      VJTU        VJTI        ATVX        AIVX        VJAI        BVAT        BJAT        BJAI        TOTAL       RNORM  
-----------------------------------------------------------------------------------------------------------------------------
   1     0.000000    0.000000   -0.046633    0.000000    0.000000   -0.049039    0.000000    0.000000   -0.095671    0.003965
   2     0.000000    0.000000   -0.047063    0.000000    0.000000   -0.049091    0.000000    0.000000   -0.096154    0.000214
   3     0.000000    0.000000   -0.047065    0.000000    0.000000   -0.049092    0.000000    0.000000   -0.096157    0.000030
   4     0.000000    0.000000   -0.047064    0.000000    0.000000   -0.049092    0.000000    0.000000   -0.096156    0.000003
 
********************************************************************************
  CASPT2 PROPERTY SECTION
--------------------------------------------------------------------------------
 
 Variance of |WF0>:       0.0280120749
 
 Solving the Lambda equation for analytic gradients
-----------------------------------------------------------------------------------------------------------------------------
  IT.      VJTU        VJTI        ATVX        AIVX        VJAI        BVAT        BJAT        BJAI        TOTAL       RNORM  
-----------------------------------------------------------------------------------------------------------------------------
   1     0.000000    0.000000   -0.008211    0.000000    0.000000   -0.004812    0.000000    0.000000   -0.013023    0.000938
   2     0.000000    0.000000   -0.008238    0.000000    0.000000   -0.004814    0.000000    0.000000   -0.013052    0.000059
   3     0.000000    0.000000   -0.008238    0.000000    0.000000   -0.004814    0.000000    0.000000   -0.013052    0.000006
-----------------------------------------------------------------------------------------------------------------------------
 
 * TypeIndex information is IGNORED *
 
      Input file to MOLDEN was generated!
 
 
 
      Mulliken population Analysis:
      -----------------------------
 
++    Molecular charges:
      ------------------
 
      Mulliken charges per centre and basis function type
      ---------------------------------------------------
 
                S1      H2      H3    
      1s       2.0000  1.0772  1.0772
      2s       2.0023  0.0000  0.0000
      2px      1.9998  0.0000  0.0000
      2pz      2.0001  0.0000  0.0000
      2py      2.0000  0.0000  0.0000
      3s       2.1101  0.0000  0.0000
      3px      1.0785  0.0000  0.0000
      3pz      1.5590  0.0000  0.0000
      3py      1.4437  0.0000  0.0000
      *s      -0.1974 -0.3350 -0.3350
      *px     -0.0836  0.0025  0.0025
      *pz     -0.2473  0.0136  0.0136
      *py     -0.2569  0.0110  0.0110
      *d2+     0.0048  0.0000  0.0000
      *d1+     0.0004  0.0000  0.0000
      *d0      0.0078  0.0000  0.0000
      *d1-     0.0400  0.0000  0.0000
      *d2-     0.0000  0.0000  0.0000
      Total   15.4613  0.7693  0.7694
 
      N-E      0.5387  0.2307  0.2306
 
      Total electronic charge=   17.000000
 
      Total            charge=    1.000000
--
 
 
      Expectation values of various properties:
      -----------------------------------------
 
++    Molecular properties:
      ---------------------
 
      Charge (e):
                      =    1.0000
      Dipole Moment (Debye):
      Origin of the operator (Ang)=    0.0000    0.0000    0.0000
                   X= -1.5527E-01               Y=  2.2963E-06               Z=  2.6173E+00           Total=  2.6220E+00
      Center of Charge (Ang)
                     X=   -0.03232717               Y=    0.00000048               Z=    0.54491711
      Quadrupole Moment (Debye*Ang):
      Origin of the operator (Ang)=    0.0000    0.0000    0.0709
                  XX= -1.1643E+01              XY= -7.5632E-08              XZ= -1.9838E-02              YY= -9.5521E+00
                  YZ=  4.0238E-06              ZZ= -8.8148E+00
      In traceless form (Debye*Ang)
                  XX= -2.4596E+00              XY= -1.1345E-07              XZ= -2.9757E-02              YY=  6.7678E-01
                  YZ=  6.0358E-06              ZZ=  1.7829E+00
--
 
********************************************************************************
 Compute H0 matrices for state    2
--------------------------------------------------------------------------------
--------------------------------------------------------------------------------
 H0 matrices have been computed.
 
********************************************************************************
  CASPT2 EQUATION SOLUTION (SECOND RUN)
--------------------------------------------------------------------------------
 
  Total nr of CASPT2 parameters:
   Before reduction:        8925
   After  reduction:        8823
 
 Variance of |WF0>:       0.2324329609
 
 The contributions to the second order correlation energy in atomic units.
-----------------------------------------------------------------------------------------------------------------------------
  IT.      VJTU        VJTI        ATVX        AIVX        VJAI        BVAT        BJAT        BJAI        TOTAL       RNORM  
-----------------------------------------------------------------------------------------------------------------------------
   1     0.000000    0.000000   -0.042743    0.000000    0.000000   -0.056744    0.000000    0.000000   -0.099487    0.003884
   2     0.000000    0.000000   -0.043169    0.000000    0.000000   -0.056787    0.000000    0.000000   -0.099956    0.000197
   3     0.000000    0.000000   -0.043170    0.000000    0.000000   -0.056788    0.000000    0.000000   -0.099958    0.000024
   4     0.000000    0.000000   -0.043170    0.000000    0.000000   -0.056788    0.000000    0.000000   -0.099957    0.000003
 
********************************************************************************
  CASPT2 PROPERTY SECTION
--------------------------------------------------------------------------------
 
 Variance of |WF0>:       0.0296078261
 
 Solving the Lambda equation for analytic gradients
-----------------------------------------------------------------------------------------------------------------------------
  IT.      VJTU        VJTI        ATVX        AIVX        VJAI        BVAT        BJAT        BJAI        TOTAL       RNORM  
-----------------------------------------------------------------------------------------------------------------------------
   1     0.000000    0.000000   -0.010267    0.000000    0.000000   -0.003560    0.000000    0.000000   -0.013827    0.001159
   2     0.000000    0.000000   -0.010302    0.000000    0.000000   -0.003565    0.000000    0.000000   -0.013868    0.000084
   3     0.000000    0.000000   -0.010303    0.000000    0.000000   -0.003565    0.000000    0.000000   -0.013868    0.000012
   4     0.000000    0.000000   -0.010303    0.000000    0.000000   -0.003565    0.000000    0.000000   -0.013868    0.000001
-----------------------------------------------------------------------------------------------------------------------------
 
 * TypeIndex information is IGNORED *
 
      Input file to MOLDEN was generated!
 
 
 
      Mulliken population Analysis:
      -----------------------------
 
++    Molecular charges:
      ------------------
 
      Mulliken charges per centre and basis function type
      ---------------------------------------------------
 
                S1      H2      H3    
      1s       2.0000  0.9689  0.9689
      2s       2.0023  0.0000  0.0000
      2px      1.9998  0.0000  0.0000
      2pz      2.0001  0.0000  0.0000
      2py      2.0000  0.0000  0.0000
      3s       1.9606  0.0000  0.0000
      3px      2.1546  0.0000  0.0000
      3pz      0.8231  0.0000  0.0000
      3py      1.3547  0.0000  0.0000
      *s      -0.1900 -0.3075 -0.3075
      *px     -0.1672  0.0050  0.0050
      *pz     -0.1301  0.0137  0.0137
      *py     -0.2368  0.0084  0.0084
      *d2+     0.0032  0.0000  0.0000
      *d1+     0.0008  0.0000  0.0000
      *d0      0.0056  0.0000  0.0000
      *d1-     0.0425  0.0000  0.0000
      *d2-     0.0000  0.0000  0.0000
      Total   15.6230  0.6885  0.6885
 
      N-E      0.3770  0.3115  0.3115
 
      Total electronic charge=   17.000000
 
      Total            charge=    1.000000
--
 
 
      Expectation values of various properties:
      -----------------------------------------
 
++    Molecular properties:
      ---------------------
 
      Charge (e):
                      =    1.0000
      Dipole Moment (Debye):
      Origin of the operator (Ang)=    0.0000    0.0000    0.0000
                   X= -1.7118E-01               Y=  1.9387E-05               Z=  2.5758E+00           Total=  2.5815E+00
      Center of Charge (Ang)
                     X=   -0.03563886               Y=    0.00000404               Z=    0.53627135
      Quadrupole Moment (Debye*Ang):
      Origin of the operator (Ang)=    0.0000    0.0000    0.0709
                  XX= -1.4163E+01              XY= -8.5689E-08              XZ= -2.3852E-02              YY= -8.9685E+00
                  YZ=  4.1939E-05              ZZ= -6.1886E+00
      In traceless form (Debye*Ang)
                  XX= -6.5841E+00              XY= -1.2853E-07              XZ= -3.5778E-02              YY=  1.2071E+00
                  YZ=  6.2909E-05              ZZ=  5.3769E+00
--
 
--
 
  THE ORIGINAL CI ARRAYS ARE NOW MIXED AS LINEAR
  COMBINATIONS, GIVEN BY THE EIGENVECTORS.
  A NEW JOBIPH FILE NAMED 'JOBMIX' IS PREPARED.
********************************************************************************
 
++ Mixed CI coefficients:
  The CI coefficients for the MIXED state nr.   1
--------------------------------------------------------------------------------
 CI COEFFICIENTS LARGER THAN  0.10D+00
  Occupation of active orbitals, and spin coupling
  of open shells. (u,d: Spin up or down).
  SGUGA info is (Midvert:IsyUp:UpperWalk/LowerWalk)
        Conf  SGUGA info        Occupation    Coefficient         Weight
           1  ( 1:1:   1/   1)   222u00         -0.974582       0.949811
          56  ( 3:1:   2/   4)   202u20         -0.106930       0.011434
 
  The CI coefficients for the MIXED state nr.   2
--------------------------------------------------------------------------------
 CI COEFFICIENTS LARGER THAN  0.10D+00
  Occupation of active orbitals, and spin coupling
  of open shells. (u,d: Spin up or down).
  SGUGA info is (Midvert:IsyUp:UpperWalk/LowerWalk)
        Conf  SGUGA info        Occupation    Coefficient         Weight
           4  ( 2:1:   1/   1)   22u200         -0.974235       0.949134
         124  ( 5:1:   1/   3)   20u220         -0.108099       0.011685
 
--
 
 ###############################################################################
 ###############################################################################
 ###                                                                         ###
 ###                                                                         ###
 ###    WARNING: RunFile label nBas                                          ###
 ###    was used      116 times                                              ###
 ###                                                                         ###
 ###                                                                         ###
 ###############################################################################
 ###############################################################################
--- Stop Module: caspt2 at Wed Mar 20 15:35:51 2024 /rc=_RC_ALL_IS_WELL_ ---
--- Module caspt2 spent 1 second ---

*** symbolic link created: INPORB -> MOLCAS.RasOrb
--- Start Module: alaska at Wed Mar 20 15:35:51 2024 ---
 
()()()()()()()()()()()()()()()()()()()()()()()()()()()()()()()()()()()()()()()()()()()()()()()()()()

                                              &ALASKA

                                   only a single process is used
                       available to each process: 10 GB of memory, 1 thread?
                                            pid: 1177613
()()()()()()()()()()()()()()()()()()()()()()()()()()()()()()()()()()()()()()()()()()()()()()()()()()
 
--- Stop Module: alaska at Wed Mar 20 15:35:51 2024 /rc=_RC_INVOKED_OTHER_MODULE_ ---

*** symbolic link created: INPORB -> MOLCAS.RasOrb
--- Start Module: mclr at Wed Mar 20 15:35:51 2024 ---
 
()()()()()()()()()()()()()()()()()()()()()()()()()()()()()()()()()()()()()()()()()()()()()()()()()()

                                               &MCLR

                                   only a single process is used
                       available to each process: 10 GB of memory, 1 thread?
                                            pid: 1177617
()()()()()()()()()()()()()()()()()()()()()()()()()()()()()()()()()()()()()()()()()()()()()()()()()()
 
 No .RLXPT2  or MCKINT  , I hope that is OK
 Seward mode is assumed, reading perturbation from ONEINT  
 OrdInt status: non-squared
 
++   Wave function specifications:
     -----------------------------
 
     Number of closed shell electrons             10
     Number of electrons in active shells          7
     Max number of holes in RAS1 space             0
     Max number of electrons in RAS3 space         0
     Number of inactive orbitals                   5
     Number of active orbitals                     6
     Number of secondary orbitals                 17
     Spin quantum number                         0.5
     State symmetry                                1
     Number of CI roots                            2
     States considered                             1     2
     Weights                                   0.500 0.500
 
     Symmetry species                              1
     Skipped sym. species                          0
     Frozen orbitals                               0
     Inactive orbitals                             5
     Active orbitals                               6
     RAS1 orbitals                                 0
     RAS2 orbitals                                 6
     RAS3 orbitals                                 0
     Deleted orbitals                              0
     Number of basis functions                    28
     Number of orbitals                           28
     Number of configurations                    210
     Number of combinations                      300
     Natural orbitals are used in the last CI
     RASSCF state energy =           -398.3703987882
     Size of explicit Hamiltonian in PCG:        100
--
 
     Convergence threshold=               1.0000E-04
     Max number of iterations in PCG:            200
     Using the Cho-MO Algorithm
     Calculating Lagrangian multipliers for CASPT2
     Lagrangian multipliers are calculated for states no.   1/  2
 
 
  Reordering of the Cholesky vectors to full storage. 
  Elapsed time for the reordering section:   2.000000000000000E-002
  CPU time for the reordering section:   2.000000000000000E-002
 
 TIMING INFORMATION:   CPU(s)   %CPU   Elapsed(s)
 Transformation          0.01    1.0         0.01
 Generation              0.01    1.0         0.02
 TOTAL                   0.04    4.0         0.05
 
        Iteration       Delta           Res(kappa)       Res(CI)          DeltaK
            DeltaC
 Warning  perturbation number                      1  might diverge
            1      8.865458513E-02  6.924556298E-02  1.734519152E-01  2.844528434E-03  2.550768361E-02
            2      1.429986253E-02  3.170391202E-02  6.257168490E-02  4.957167770E-04  4.077455992E-03
            3      3.554564682E-03  9.398036492E-03  3.406211842E-02  1.122704249E-04  1.024498434E-03
            4      4.865218139E-04  9.459497570E-03  1.340393472E-02  3.632173610E-05  1.192705507E-04
            5      5.132374173E-05  1.770060334E-03  3.741152143E-03  3.236776821E-06  1.317683119E-05
            6      8.904895493E-06  1.149646225E-03  1.701790150E-03  6.653371108E-07  2.182496252E-06
            7      1.189427593E-06  3.527054777E-04  5.238694294E-04  1.867844766E-07  1.936008501E-07
            8      3.264674427E-07  9.958209357E-05  3.250992644E-04  8.767432348E-09  9.563860767E-08
            9      6.887682474E-08  7.219943106E-05  1.408830293E-04  7.674278475E-09  1.435289967E-08
      Perturbation no:    1 converged in    9 steps.
 
 
      The response parameters are written to the file RESP.
--- Stop Module: mclr at Wed Mar 20 15:35:51 2024 /rc=_RC_ALL_IS_WELL_ ---

*** symbolic link created: INPORB -> MOLCAS.RasOrb
--- Start Module: alaska at Wed Mar 20 15:35:51 2024 ---
 
()()()()()()()()()()()()()()()()()()()()()()()()()()()()()()()()()()()()()()()()()()()()()()()()()()

                                              &ALASKA

                                   only a single process is used
                       available to each process: 10 GB of memory, 1 thread?
                                            pid: 1177633
()()()()()()()()()()()()()()()()()()()()()()()()()()()()()()()()()()()()()()()()()()()()()()()()()()
 
 
                     Threshold for contributions to the gradient: 0.100E-06
 
 
                    ********************************************
                    * Symmetry Adapted Cartesian Displacements *
                    ********************************************
 
 
           Irreducible representation : a  
           Basis function(s) of irrep: x, y, xy, Rz, z, xz, Ry, yz, Rx, I                                              
 
 Basis Label        Type   Center Phase
   1   S1           x         1     1
   2   S1           y         1     1
   3   S1           z         1     1
   4   H2           x         2     1
   5   H2           y         2     1
   6   H2           z         2     1
   7   H3           x         3     1
   8   H3           y         3     1
   9   H3           z         3     1
 
                     No automatic utilization of translational and rotational invariance of the energy is employed.
 
 Skipping Nuclear Charge Contribution
 RI-ERI gradients!
 
 Wavefunction type: State average CASPT2
 
 A total of 12682. entities were prescreened and 12682. were kept.
 A total of 254047. entities were prescreened and 234807. were kept.
 
 *****************************************************
 *                                                   *
 *              CI derivative coupling               *
 *                                                   *
 *****************************************************
 
  Irreducible representation: a  
 ------------------------------------------------------------------------------------------
                              X                       Y                       Z
 ------------------------------------------------------------------------------------------
  S1               -1.83019538030349E-06   -1.63201740634476E-12    1.05866241033139E-12
  H2                9.17736814654013E-07    6.90986000913787E-13    4.32116933062473E-13
  H3                9.12458565927032E-07    9.41031405430982E-13   -1.49077934339386E-12
 ------------------------------------------------------------------------------------------
 
 
 ******************************************************
 *                                                    *
 *              CSF derivative coupling               *
 *                                                    *
 ******************************************************
 
  Irreducible representation: a  
 ------------------------------------------------------------------------------------------
                              X                       Y                       Z
 ------------------------------------------------------------------------------------------
  S1                0.00000000000000E+00    0.00000000000000E+00    0.00000000000000E+00
  H2                0.00000000000000E+00    0.00000000000000E+00    0.00000000000000E+00
  H3                0.00000000000000E+00    0.00000000000000E+00    0.00000000000000E+00
 ------------------------------------------------------------------------------------------
 
               Energy difference: -1.272026E-01
 
 *******************************************************
 *                                                     *
 *              Total derivative coupling              *
 *                                                     *
 *******************************************************
 
  Irreducible representation: a  
 ------------------------------------------------------------------------------------------
                              X                       Y                       Z
 ------------------------------------------------------------------------------------------
  S1                1.43880397582491E-05    1.28300680798075E-11   -8.32265069311128E-12
  H2               -7.21476729695450E-06   -5.43217088215603E-12   -3.39707753610685E-12
  H3               -7.17327246347659E-06   -7.39789719765155E-12    1.17197282292181E-11
 ------------------------------------------------------------------------------------------
 
               norm:       0.0000
--- Stop Module: alaska at Wed Mar 20 15:35:52 2024 /rc=_RC_ALL_IS_WELL_ ---

>>> COPY MOLCAS.2.JobIph JOB001

>>> COPY MOLCAS.JobIph JOB002

*** symbolic link created: INPORB -> MOLCAS.RasOrb
--- Start Module: rassi at Wed Mar 20 15:35:52 2024 ---
 
()()()()()()()()()()()()()()()()()()()()()()()()()()()()()()()()()()()()()()()()()()()()()()()()()()

                                               &RASSI

                                   only a single process is used
                       available to each process: 10 GB of memory, 1 thread?
                                            pid: 1177690
()()()()()()()()()()()()()()()()()()()()()()()()()()()()()()()()()()()()()()()()()()()()()()()()()()
 
 
      ********************************************************************************
      *                                                                              *
      *                             General data section                             *
      *                                                                              *
      ********************************************************************************
 
   Specific data for JOBIPH file 
 JOB001                                                                         
                                                  
   -------------------------------------
 
   Header from SEWARD:
                                                                               
        Integrals generated by Gateway/Seward, Wed Mar 20 15:35:38 2024        
 
   CASSCF title (first line only):
       (No title given)                                                        
 
   STATE IRREP:                             1
   SPIN MULTIPLICITY:                       2
   ACTIVE ELECTRONS:                        7
   MAX RAS1 HOLES:                          0
   MAX RAS3 ELECTRONS:                      0
   NR OF CONFIG:                          210
 
   Specific data for JOBIPH file 
 JOB002                                                                         
                                                  
   -------------------------------------
 
   Header from SEWARD:
                                                                               
        Integrals generated by Gateway/Seward, Wed Mar 20 15:35:38 2024        
 
   CASSCF title (first line only):
       (No title given)                                                        
 
   STATE IRREP:                             1
   SPIN MULTIPLICITY:                       2
   ACTIVE ELECTRONS:                        7
   MAX RAS1 HOLES:                          0
   MAX RAS3 ELECTRONS:                      0
   NR OF CONFIG:                          210
 ###############################################################################
 ###############################################################################
 ###                                                                         ###
 ###                                                                         ###
 ###    WARNING: EJOB used when HEFF is available, possible                  ###
 ###    extra interaction between states is ignored!                         ###
 ###                                                                         ###
 ###                                                                         ###
 ###############################################################################
 ###############################################################################
 ###############################################################################
 ###############################################################################
 ###                                                                         ###
 ###                                                                         ###
 ###    WARNING: EJOB used for a situation where possible extra              ###
 ###    interaction between states is ignored!                               ###
 ###                                                                         ###
 ###                                                                         ###
 ###############################################################################
 ###############################################################################
 
   The following data are common to all the states:
   ------------------------------------------------
   (note: frozen counts as inactive, deleted as secondary)
 
      Nr of irreps: 1
 
                 Total     No./Irrep 
      Irrep                  1
                             a
 
      INACTIVE       5       5
      ACTIVE         6       6
      SECONDARY     17      17
      BASIS         28      28
 
      RAS1           0       0
      RAS2           6       6
      RAS3           0       0
 
        MATRIX ELEMENTS WILL BE COMPUTED FOR THE FOLLOWING ONE-ELECTRON OPERATOR
 S, UNLESS ZERO BY SYMMETRY.
   (Herm=Hermitian, Anti=Antihermitian, Sing=Singlet operator, Trip=Triplet oper
 ator)
     MLTPL  0   1 (HERMSING)     MLTPL  1   1 (HERMSING)     MLTPL  1   2 (HERMSING)
     MLTPL  1   3 (HERMSING)     MLTPL  2   1 (HERMSING)     MLTPL  2   2 (HERMSING)
     MLTPL  2   3 (HERMSING)     MLTPL  2   4 (HERMSING)     MLTPL  2   5 (HERMSING)
     MLTPL  2   6 (HERMSING)     VELOCITY   1 (ANTISING)     VELOCITY   2 (ANTISING)
     VELOCITY   3 (ANTISING)     ANGMOM     1 (ANTISING)     ANGMOM     2 (ANTISING)
     ANGMOM     3 (ANTISING)     MLTPV  2   1 (ANTISING)     MLTPV  2   2 (ANTISING)
     MLTPV  2   3 (ANTISING)     MLTPV  2   4 (ANTISING)     MLTPV  2   5 (ANTISING)
     MLTPV  2   6 (ANTISING)
 
       EIGENSTATES OF A SPIN-FREE HAMILTONIAN WILL BE COMPUTED BASED ON:
 
  a Hamiltonian matrix assumed to be diagonal with energies read from the wavefu
 nction file(s).
 
  Nr of states:                     4
 
   State:        1   2   3   4
  JobIph:        1   1   2   2
 Root nr:        1   2   1   2
 

 MO OVERLAP MATRIX IN ORIGINAL ORBITAL BASES:

 
 SYMMETRY LABELS OF ROWS/COLS: 1 1


               1               2               3               4               5

   1   1.00000000      0.119740857E-08  0.582471947E-09  0.733138418E-09 -0.199188073E-14
   2 -0.119738604E-08   1.00000000      0.140651854E-06  0.712745593E-07 -0.387146916E-12
   3 -0.582384748E-09 -0.140646215E-06  0.999999995     -0.989456497E-04 -0.294096976E-10
   4 -0.733199712E-09 -0.712882459E-07  0.989456498E-04  0.999999995     -0.133185859E-09
   5  0.910165050E-15  0.387053334E-12  0.294231650E-10  0.133183665E-09   1.00000000    
   6 -0.166085080E-07  0.131554736E-05  0.104720542E-05 -0.130384579E-06  0.157911814E-12
   7  0.327468444E-09 -0.179746765E-06 -0.186611390E-06  0.359242824E-06  0.602464959E-12
   8  0.152831752E-08 -0.449612119E-07  0.155480884E-07 -0.127439319E-06 -0.195371522E-12
   9 -0.240870358E-15 -0.647623172E-15 -0.216602754E-15  0.261410468E-17  0.444637527E-07
  10  0.594314576E-10  0.247659878E-08  0.164036587E-07 -0.329340059E-07  0.113661454E-12
  11  0.100019391E-09  0.104627127E-08  0.255147862E-07 -0.101959262E-07 -0.747467542E-16


               6               7               8               9              10

   1  0.166085074E-07 -0.327332096E-09 -0.152831596E-08 -0.985786981E-16 -0.594463334E-10
   2 -0.131554837E-05  0.179738876E-06  0.449670478E-07 -0.175521391E-15 -0.247480057E-08
   3 -0.104721905E-05  0.186642712E-06 -0.155544379E-07 -0.353449482E-15 -0.164059001E-07
   4  0.130282662E-06 -0.359229054E-06  0.127424100E-06 -0.163929754E-15  0.329288569E-07
   5 -0.157134415E-12 -0.603259102E-12  0.195798593E-12 -0.444637717E-07 -0.113697342E-12
   6   1.00000000      0.470243757E-05  0.826221831E-06  0.147262628E-10 -0.482264253E-07
   7 -0.470246905E-05  0.999999999      0.384328098E-04  0.578459127E-12  0.110065769E-04
   8 -0.826043694E-06 -0.384328024E-04  0.999999999     -0.819661508E-11 -0.968313350E-06
   9 -0.147253672E-10 -0.578764744E-12  0.819722016E-11   1.00000000     -0.456405765E-11
  10  0.482141419E-07 -0.110067088E-04  0.967884890E-06  0.456249886E-11  0.999999998    
  11  0.200203314E-05  0.288123467E-06  0.557102684E-06  0.487890655E-11  0.239212203E-04


              11
   1 -0.100036420E-09
   2 -0.104397079E-08
   3 -0.255142585E-07
   4  0.101924546E-07
   5  0.200361922E-15
   6 -0.200202515E-05
   7 -0.288422317E-06
   8 -0.556997614E-06
   9 -0.487820363E-11
  10 -0.239219171E-04
  11  0.999999997    
 
 *******************************************************************************
 *
 
  HAMILTONIAN MATRIX FOR THE ORIGINAL STATES:
 
                   |    1 >          |    2 >          |    3 >          |    4 > 
 <    1 |      -398.46655447        0.00000000     -398.41847627       -0.00000000
 <    2 |         0.00000000     -398.33935190       -0.00000000      398.28937268
 <    3 |      -398.41847627       -0.00000000     -398.37039879        0.00000000
 <    4 |        -0.00000000      398.28937268        0.00000000     -398.23939484
 
      OVERLAP MATRIX FOR THE ORIGINAL STATES:
 
      1.00000000
     -0.00000000      1.00000000
      1.00000000      0.00000000      1.00000000
      0.00000000     -1.00000000     -0.00000000      1.00000000
 
++ Matrix elements for input states
   --------------------------------
 
  MATRIX ELEMENTS OF 1-ELECTRON OPERATORS
  FOR THE RASSCF INPUT WAVE FUNCTIONS:
 
 
 PROPERTY: MLTPL  0   COMPONENT:*   1
 ORIGIN    :   0.00000000D+00   0.00000000D+00   0.00000000D+00
 STATE     :       1                2                3                4
 
     1         1.00000000     -0.158640216E-15  0.999999999      0.533928658E-12
     2       -0.158640216E-15   1.00000000      0.533341392E-12 -0.999999998    
     3        0.999999999      0.533341392E-12   1.00000000     -0.742410946E-15
     4        0.533928658E-12 -0.999999998     -0.742410946E-15   1.00000000    
 
 
 PROPERTY: MLTPL  1   COMPONENT:*   1
 ORIGIN    :   0.00000000D+00   0.00000000D+00   0.00000000D+00
 STATE     :       1                2                3                4
 
     1        0.219077434E-10 -0.315553348      0.107972551E-10  0.315541401    
     2       -0.315553348     -0.369787408E-11 -0.315547095      0.195160806E-11
     3        0.107972551E-10 -0.315547095     -0.313940628E-12  0.315535149    
     4        0.315541401      0.195160806E-11  0.315535149     -0.208240339E-12
 
 
 PROPERTY: MLTPL  1   COMPONENT:*   2
 ORIGIN    :   0.00000000D+00   0.00000000D+00   0.00000000D+00
 STATE     :       1                2                3                4
 
     1        0.411814432E-05  0.107961904E-10  0.251077288E-05 -0.691594929E-11
     2        0.107961904E-10  0.369314949E-04  0.583086664E-11 -0.222800281E-04
     3        0.251077288E-05  0.583086664E-11  0.903430551E-06 -0.195079359E-11
     4       -0.691594929E-11 -0.222800281E-04 -0.195079359E-11  0.762740073E-05
 
 
 PROPERTY: MLTPL  1   COMPONENT:*   3
 ORIGIN    :   0.00000000D+00   0.00000000D+00   0.00000000D+00
 STATE     :       1                2                3                4
 
     1         1.02971946      0.136814774E-10   1.02973178     -0.106466091E-10
     2        0.136814774E-10   1.01332927      0.349707766E-11  -1.01336762    
     3         1.02973178      0.349707766E-11   1.02974411     -0.464368484E-12
     4       -0.106466091E-10  -1.01336762     -0.464368484E-12   1.01340598    
 
 
 PROPERTY: MLTPL  2   COMPONENT:*   1
 ORIGIN    :   0.00000000D+00   0.00000000D+00   0.13406721D+00
 STATE     :       1                2                3                4
 
     1        -8.65633753     -0.268512067E-12  -8.65634771     -0.440887910E-11
     2       -0.268512067E-12  -10.5295299     -0.468256985E-11   10.5295407    
     3        -8.65634771     -0.468256985E-11  -8.65635790      0.101071266E-13
     4       -0.440887910E-11   10.5295407      0.101071266E-13  -10.5295515    
 
 
 PROPERTY: MLTPL  2   COMPONENT:*   2
 ORIGIN    :   0.00000000D+00   0.00000000D+00   0.13406721D+00
 STATE     :       1                2                3                4
 
     1        0.501489448E-11  0.361355545E-04  0.210353829E-11 -0.804709023E-05
     2        0.361355545E-04 -0.194544783E-10  0.355408884E-04  0.112452193E-10
     3        0.210353829E-11  0.355408884E-04 -0.807796186E-12 -0.745217499E-05
     4       -0.804709023E-05  0.112452193E-10 -0.745217499E-05 -0.303672722E-11
 
 
 PROPERTY: MLTPL  2   COMPONENT:*   3
 ORIGIN    :   0.00000000D+00   0.00000000D+00   0.13406721D+00
 STATE     :       1                2                3                4
 
     1       -0.380420546E-12  0.827088453     -0.314264474E-12 -0.827092298    
     2        0.827088453      0.474119981E-11  0.827089237     -0.221549223E-11
     3       -0.314264474E-12  0.827089237     -0.249629952E-12 -0.827093083    
     4       -0.827092298     -0.221549223E-11 -0.827093083     -0.311191128E-12
 
 
 PROPERTY: MLTPL  2   COMPONENT:*   4
 ORIGIN    :   0.00000000D+00   0.00000000D+00   0.13406721D+00
 STATE     :       1                2                3                4
 
     1        -7.10180346      0.454256364E-11  -7.10179444     -0.426296324E-11
     2        0.454256364E-11  -6.66790696      0.822792949E-12   6.66787872    
     3        -7.10179444      0.822792949E-12  -7.10178544     -0.540940247E-12
     4       -0.426296324E-11   6.66787872     -0.540940247E-12  -6.66785051    
 
 
 PROPERTY: MLTPL  2   COMPONENT:*   5
 ORIGIN    :   0.00000000D+00   0.00000000D+00   0.13406721D+00
 STATE     :       1                2                3                4
 
     1        0.122515353E-04  0.308295970E-10  0.762140115E-05 -0.147027687E-10
     2        0.308295970E-10  0.150094295E-03  0.204565102E-10 -0.906381925E-04
     3        0.762140115E-05  0.204565102E-10  0.299162675E-05 -0.432958731E-11
     4       -0.147027687E-10 -0.906381925E-04 -0.432958731E-11  0.311808783E-04
 
 
 PROPERTY: MLTPL  2   COMPONENT:*   6
 ORIGIN    :   0.00000000D+00   0.00000000D+00   0.13406721D+00
 STATE     :       1                2                3                4
 
     1        -6.55362810      0.298123910E-11  -6.55358991     -0.391159174E-11
     2        0.298123910E-11  -4.60120684     -0.375633672E-12   4.60114435    
     3        -6.55358991     -0.375633672E-12  -6.55355173     -0.554084853E-12
     4       -0.391159174E-11   4.60114435     -0.554084853E-12  -4.60108187    
 
 
 PROPERTY: VELOCITY   COMPONENT:*   1
 ORIGIN    :   0.00000000D+00   0.00000000D+00   0.00000000D+00
 STATE     :       1                2                3                4
 
     1       -0.411706097E-29  0.616183924E-01  0.429741842E-11 -0.616121395E-01
     2       -0.616183924E-01 -0.222058064E-26 -0.616195936E-01  0.190137699E-11
     3       -0.429741842E-11  0.616195936E-01 -0.589180549E-28 -0.616133406E-01
     4        0.616121395E-01 -0.190137699E-11  0.616133406E-01 -0.815551975E-29
 
 
 PROPERTY: VELOCITY   COMPONENT:*   2
 ORIGIN    :   0.00000000D+00   0.00000000D+00   0.00000000D+00
 STATE     :       1                2                3                4
 
     1       -0.378733669E-16  0.260565228E-12  0.505058827E-06 -0.151644067E-11
     2       -0.260565228E-12  0.220259466E-16  0.149945266E-11 -0.294714370E-05
     3       -0.505058827E-06 -0.149945266E-11  0.183106333E-16  0.243312824E-12
     4        0.151644067E-11  0.294714370E-05 -0.243312824E-12  0.292508689E-16
 
 
 PROPERTY: VELOCITY   COMPONENT:*   3
 ORIGIN    :   0.00000000D+00   0.00000000D+00   0.00000000D+00
 STATE     :       1                2                3                4
 
     1        0.819771205E-17  0.354362709E-11 -0.783190738E-05 -0.483745833E-11
     2       -0.354362709E-11 -0.701249935E-16  0.155938638E-11  0.189317560E-04
     3        0.783190738E-05 -0.155938638E-11  0.405894665E-16  0.265055652E-12
     4        0.483745833E-11 -0.189317560E-04 -0.265055652E-12 -0.826109448E-17
 
 
 PROPERTY: ANGMOM     COMPONENT:*   1
 ORIGIN    :   0.00000000D+00   0.00000000D+00   0.00000000D+00
 STATE     :       1                2                3                4
 
     1       -0.969948678E-16 -0.659182046E-11 -0.982905570E-06  0.448389788E-11
     2        0.659182046E-11 -0.286699731E-16  0.238307811E-11  0.330621467E-04
     3        0.982905570E-06 -0.238307811E-11  0.169015938E-16  0.275279210E-12
     4       -0.448389788E-11 -0.330621467E-04 -0.275279210E-12  0.251644849E-16
 
 
 PROPERTY: ANGMOM     COMPONENT:*   2
 ORIGIN    :   0.00000000D+00   0.00000000D+00   0.00000000D+00
 STATE     :       1                2                3                4
 
     1        0.222791451E-26  0.888930268      0.542612235E-12 -0.888930390    
     2       -0.888930268      0.120028272E-25 -0.888932021     -0.589679588E-11
     3       -0.542612235E-12  0.888932021     -0.144091764E-26 -0.888932143    
     4        0.888930390      0.589679588E-11  0.888932143     -0.241412270E-27
 
 
 PROPERTY: ANGMOM     COMPONENT:*   3
 ORIGIN    :   0.00000000D+00   0.00000000D+00   0.00000000D+00
 STATE     :       1                2                3                4
 
     1        0.157004561E-26 -0.426984510E-04  0.127959945E-11  0.968642268E-05
     2        0.426984510E-04 -0.483722685E-27  0.415942239E-04 -0.856191205E-11
     3       -0.127959945E-11 -0.415942239E-04 -0.150281017E-26  0.858195125E-05
     4       -0.968642268E-05  0.856191205E-11 -0.858195125E-05 -0.613778617E-27
 
 
 PROPERTY: MLTPV  2   COMPONENT:*   1
 ORIGIN    :   0.00000000D+00   0.00000000D+00   0.13406721D+00
 STATE     :       1                2                3                4
 
     1       -0.340435493E-15  0.605517324E-12 -0.851990650E-05  0.170142078E-11
     2       -0.605517324E-12  0.235988293E-16 -0.221070803E-11 -0.258914200E-06
     3        0.851990650E-05  0.221070803E-11 -0.115006475E-15  0.960983465E-13
     4       -0.170142078E-11  0.258914200E-06 -0.960983465E-13 -0.241394570E-16
 
 
 PROPERTY: MLTPV  2   COMPONENT:*   2
 ORIGIN    :   0.00000000D+00   0.00000000D+00   0.13406721D+00
 STATE     :       1                2                3                4
 
     1       -0.243635443E-28  0.375050964E-05 -0.359129975E-12 -0.947178364E-06
     2       -0.375050964E-05  0.636352122E-28 -0.357213864E-05 -0.969338120E-12
     3        0.359129975E-12  0.357213864E-05  0.150503991E-27 -0.768862873E-06
     4        0.947178364E-06  0.969338120E-12  0.768862873E-06 -0.118910156E-27
 
 
 PROPERTY: MLTPV  2   COMPONENT:*   3
 ORIGIN    :   0.00000000D+00   0.00000000D+00   0.13406721D+00
 STATE     :       1                2                3                4
 
     1        0.219413421E-27  0.733579228E-01  0.209730812E-12 -0.733591312E-01
     2       -0.733579228E-01 -0.319968516E-27 -0.733568881E-01 -0.192857370E-13
     3       -0.209730812E-12  0.733568881E-01  0.132153617E-27 -0.733580966E-01
     4        0.733591312E-01  0.192857370E-13  0.733580966E-01 -0.589849689E-28
 
 
 PROPERTY: MLTPV  2   COMPONENT:*   4
 ORIGIN    :   0.00000000D+00   0.00000000D+00   0.13406721D+00
 STATE     :       1                2                3                4
 
     1       -0.466552813E-15  0.139246042E-11  0.721730852E-05  0.278524469E-11
     2       -0.139246042E-11  0.123145426E-15 -0.436719214E-11 -0.263089876E-04
     3       -0.721730852E-05  0.436719214E-11 -0.137345957E-15 -0.189048228E-12
     4       -0.278524469E-11  0.263089876E-04  0.189048228E-12  0.371137074E-17
 
 
 PROPERTY: MLTPV  2   COMPONENT:*   5
 ORIGIN    :   0.00000000D+00   0.00000000D+00   0.13406721D+00
 STATE     :       1                2                3                4
 
     1        0.601327138E-16  0.472871721E-11 -0.232748833E-05  0.241562789E-11
     2       -0.472871721E-11 -0.804497953E-16 -0.800762243E-11  0.604965249E-05
     3        0.232748833E-05  0.800762243E-11 -0.358968519E-16 -0.863129609E-12
     4       -0.241562789E-11 -0.604965249E-05  0.863129609E-12 -0.777253704E-16
 
 
 PROPERTY: MLTPV  2   COMPONENT:*   6
 ORIGIN    :   0.00000000D+00   0.00000000D+00   0.13406721D+00
 STATE     :       1                2                3                4
 
     1       -0.506904959E-15  0.107781741E-11  0.163721147E-04  0.321414704E-11
     2       -0.107781741E-11  0.185870624E-15 -0.434878459E-11 -0.387991649E-04
     3       -0.163721147E-04  0.434878459E-11 -0.185767959E-15 -0.564403997E-13
     4       -0.321414704E-11  0.387991649E-04  0.564403997E-13 -0.232649144E-16
 
--
 
::    RASSI State    1     Total energy:   -1536.13248393766071
::    RASSI State    2     Total energy:   -1249.81775521379177
::    RASSI State    3     Total energy:     739.29551435954693
::    RASSI State    4     Total energy:     453.23908104904615
 
 
 
      ****************************************************************************************************
      *                                                                                                  *
      *                                         Spin-free section                                        *
      *                                                                                                  *
      *                 Note: index according to input order, order according to energy.                 *
      *                                                                                                  *
      ****************************************************************************************************
 
 
 
  SPIN-FREE ENERGIES:
  (Shifted by EMIN (a.u.) =      -1536.1324839377)
 
 SF State       Relative EMIN(au)   Rel lowest level(eV)    D:o, cm**(-1)
 
     1             0.0000000000        0.0000000000              0.0000
     2           286.3147287239     7791.0206712205       62838819.5405
     4          1989.3715649867    54133.5580416389      436616590.8699
     3          2275.4279982972    61917.5501366006      499398721.1198
 
   Spin-free eigenstates in basis of input states:
   -----------------------------------------------
 
     Eigenstate No.    1 energy=  -1536.1324839377
 116733.328593 3************                                                    
                      
 
     Eigenstate No.    2 energy=  -1249.8177552138
 212047.956975 412047.249868                                                    
                      
 
     Eigenstate No.    4 energy=    453.2390810490
 212047.250382 412047.957489                                                    
                      
 
     Eigenstate No.    3 energy=    739.2955143595
 1************ 316733.328473                                                    
                      
 
 
++ Dipole transition strengths (spin-free states):
   -----------------------------------------------
     for osc. strength at least  1.00000000E-05
 
      From   To        Osc. strength     Einstein coefficients Ax, Ay, Az (sec-1)    Total A (sec-1)
     -----------------------------------------------------------------------------------------------
         1    2       4.36570896E+01  1.14988139E+17  6.78212046E+03  1.81989585E+05  1.14988139E+17
         1    4       2.88495896E-01  3.66844773E+16  2.33561018E+06  1.92872969E+06  3.66844773E+16
         1    3       1.45257009E+02  7.40019696E+06  1.67540974E+16  2.41475435E+19  2.41642976E+19
         2    4       3.44477231E+01  1.51944628E+07  3.00290279E+18  2.07279463E+17  3.21018226E+18
         2    3       2.21274021E+00  2.81293917E+17  3.26553779E+06  2.40177430E+07  2.81293917E+17
         4    3       3.06341097E+00  8.05414764E+15  9.93888213E+03  5.44284454E+03  8.05414764E+15
     -----------------------------------------------------------------------------------------------
--
 
++ Velocity transition strengths (spin-free states):
   -------------------------------------------------
     for osc. strength at least  1.00000000E-05
 
      From   To        Osc. strength     Einstein coefficients Ax, Ay, Az (sec-1)    Total A (sec-1)
     -----------------------------------------------------------------------------------------------
         1    3       1.01055348E-05  1.40365892E+00  6.96213715E+09  1.67414883E+12  1.68111096E+12
         2    4       4.17149626E-05  2.60324169E-01  9.19777669E+10  3.79543831E+12  3.88741607E+12
     -----------------------------------------------------------------------------------------------
--
 
++ Length and velocity gauge comparison (spin-free states):
   --------------------------------------------------------
 
 --------------------------------------------------
 A comparison between the dipole oscillator strengths in 
 length and velocity gauge will be performed
 
     All dipole oscillator differences above the tolerance of   1.00000000E-01  will be printed 
 
 Due to basis set deficiency these oscillator may be problematic 
 
 The tolerance is defined as ABS(1-O_l/O_v) 
 O_l : dipole oscillator strength in length gauge
 O_p : dipole oscillator strength in velocity gauge
 --------------------------------------------------
 
  Problematic transitions have been found
 
      From   To       Difference (%) Osc. st. (len.) Osc. st. (vel.)
     ---------------------------------------------------------------
         1    2      ---------------  4.36570896E+01 below threshold
         1    4      ---------------  2.88495896E-01 below threshold
         1    3      ***************  1.45257009E+02  1.01055348E-05
         2    4      82578718.296416  3.44477231E+01  4.17149626E-05
         2    3      ---------------  2.21274021E+00 below threshold
         4    3      ---------------  3.06341097E+00 below threshold
     ---------------------------------------------------------------
 
 Number of problematic transitions =                      6
 
--
 
 Electric-dipole - electric-octupole not included
 Electric-dipole - magnetic-quadrupole not included
 
++ Total transition strengths for the second-order expansion of the wave vector (spin-free states):
   ------------------------------------------------------------------------------------------------
     for osc. strength at least  1.00000000E-05
 
      From   To        Osc. strength
     -------------------------------
         1    2       4.17233301E+01
         1    4       4.33489342E+03
         1    3       3.20533776E+03
         2    4       8.36889416E+03
         2    3       5.33763991E+03
         4    3       6.00480699E+01
     -------------------------------
--
 
 
      ****************************************************************************************************
      *                                                                                                  *
      *                                    Special properties section                                    *
      *                                                                                                  *
      ****************************************************************************************************
 
 
++ I/O STATISTICS
 
  I. General I/O information
  - - - - - - - - - - - - - - - - - - - - - - - - - - - - - - - - - - - - - - - - - - -
  Unit  Name          Flsize      Write/Read            MBytes           Write/Read
                      (MBytes)       Calls              In/Out           Time, sec.
  - - - - - - - - - - - - - - - - - - - - - - - - - - - - - - - - - - - - - - - - - - -
   1  ANNI              0.00 .       0/       0 .      0.0/      0.0 .       0/       0
   2  RUNFILE           0.28 .     161/    1659 .      1.1/     12.0 .       0/       0
   3  ONEINT            1.46 .       0/     716 .      0.0/    656.2 .       0/       0
   4  JOB001            1.18 .       0/      45 .      0.0/      1.1 .       0/       0
   5  JOB002            1.14 .       0/      45 .      0.0/      1.1 .       0/       0
  - - - - - - - - - - - - - - - - - - - - - - - - - - - - - - - - - - - - - - - - - - -
   *  TOTAL             4.06 .     161/    2465 .      1.1/    670.4 .       0/       0
  - - - - - - - - - - - - - - - - - - - - - - - - - - - - - - - - - - - - - - - - - - -
 
  II. I/O Access Patterns
  - - - - - - - - - - - - - - - - - - - -
  Unit  Name               % of random
                         Write/Read calls
  - - - - - - - - - - - - - - - - - - - -
   1  ANNI                 0.0/   0.0
   2  RUNFILE             28.6/  10.7
   3  ONEINT               0.0/  98.2
   4  JOB001               0.0/  77.8
   5  JOB002               0.0/  77.8
  - - - - - - - - - - - - - - - - - - - -
--
--- Stop Module: rassi at Wed Mar 20 15:35:54 2024 /rc=_RC_ALL_IS_WELL_ ---
--- Module rassi spent 1 second ---

.##################.
.# Happy landing! #.
.##################.

    Timing: Wall=5.97 User=5.05 System=0.73
