 Entering Gaussian System, Link 0=/usr/license/gaussian16_new/rev_c01/avx2/g16/g16
 Initial command:
 /usr/license/gaussian16_new/rev_c01/avx2/g16/l1.exe "./Gau-67662.inp" -scrdir="./"
 Entering Link 1 = /usr/license/gaussian16_new/rev_c01/avx2/g16/l1.exe PID=     67667.
  
 Copyright (c) 1988-2019, Gaussian, Inc.  All Rights Reserved.
  
 This is part of the Gaussian(R) 16 program.  It is based on
 the Gaussian(R) 09 system (copyright 2009, Gaussian, Inc.),
 the Gaussian(R) 03 system (copyright 2003, Gaussian, Inc.),
 the Gaussian(R) 98 system (copyright 1998, Gaussian, Inc.),
 the Gaussian(R) 94 system (copyright 1995, Gaussian, Inc.),
 the Gaussian 92(TM) system (copyright 1992, Gaussian, Inc.),
 the Gaussian 90(TM) system (copyright 1990, Gaussian, Inc.),
 the Gaussian 88(TM) system (copyright 1988, Gaussian, Inc.),
 the Gaussian 86(TM) system (copyright 1986, Carnegie Mellon
 University), and the Gaussian 82(TM) system (copyright 1983,
 Carnegie Mellon University). Gaussian is a federally registered
 trademark of Gaussian, Inc.
  
 This software contains proprietary and confidential information,
 including trade secrets, belonging to Gaussian, Inc.
  
 This software is provided under written license and may be
 used, copied, transmitted, or stored only in accord with that
 written license.
  
 The following legend is applicable only to US Government
 contracts under FAR:
  
                    RESTRICTED RIGHTS LEGEND
  
 Use, reproduction and disclosure by the US Government is
 subject to restrictions as set forth in subparagraphs (a)
 and (c) of the Commercial Computer Software - Restricted
 Rights clause in FAR 52.227-19.
  
 Gaussian, Inc.
 340 Quinnipiac St., Bldg. 40, Wallingford CT 06492
  
  
 ---------------------------------------------------------------
 Warning -- This program may not be used in any manner that
 competes with the business of Gaussian, Inc. or will provide
 assistance to any competitor of Gaussian, Inc.  The licensee
 of this program is prohibited from giving any competitor of
 Gaussian, Inc. access to this program.  By using this program,
 the user acknowledges that Gaussian, Inc. is engaged in the
 business of creating and licensing software in the field of
 computational chemistry and represents and warrants to the
 licensee that it is not a competitor of Gaussian, Inc. and that
 it will not use this program in any manner prohibited above.
 ---------------------------------------------------------------
  

 Cite this work as:
 Gaussian 16, Revision C.01,
 M. J. Frisch, G. W. Trucks, H. B. Schlegel, G. E. Scuseria, 
 M. A. Robb, J. R. Cheeseman, G. Scalmani, V. Barone, 
 G. A. Petersson, H. Nakatsuji, X. Li, M. Caricato, A. V. Marenich, 
 J. Bloino, B. G. Janesko, R. Gomperts, B. Mennucci, H. P. Hratchian, 
 J. V. Ortiz, A. F. Izmaylov, J. L. Sonnenberg, D. Williams-Young, 
 F. Ding, F. Lipparini, F. Egidi, J. Goings, B. Peng, A. Petrone, 
 T. Henderson, D. Ranasinghe, V. G. Zakrzewski, J. Gao, N. Rega, 
 G. Zheng, W. Liang, M. Hada, M. Ehara, K. Toyota, R. Fukuda, 
 J. Hasegawa, M. Ishida, T. Nakajima, Y. Honda, O. Kitao, H. Nakai, 
 T. Vreven, K. Throssell, J. A. Montgomery, Jr., J. E. Peralta, 
 F. Ogliaro, M. J. Bearpark, J. J. Heyd, E. N. Brothers, K. N. Kudin, 
 V. N. Staroverov, T. A. Keith, R. Kobayashi, J. Normand, 
 K. Raghavachari, A. P. Rendell, J. C. Burant, S. S. Iyengar, 
 J. Tomasi, M. Cossi, J. M. Millam, M. Klene, C. Adamo, R. Cammi, 
 J. W. Ochterski, R. L. Martin, K. Morokuma, O. Farkas, 
 J. B. Foresman, and D. J. Fox, Gaussian, Inc., Wallingford CT, 2019.
 
 ******************************************
 Gaussian 16:  ES64L-G16RevC.01  3-Jul-2019
                 6-May-2025 
 ******************************************
 %MEM=4000MB
 %NProcShared=4
 Will use up to    4 processors via shared memory.
 %Chk=GAUSSIAN.chk
 Default route: IOP(99/10=0)
 ----------------------------------------------
 #p nosym unit=AU wb97xd def2svp GFINPUT charge
 ----------------------------------------------
 1/18=10,20=1,28=-2,38=1,125=101,172=1/1;
 2/12=2,15=1,17=6,18=5,40=1/2;
 3/5=43,7=101,11=2,24=10,25=1,30=1,74=-58/1,2,3;
 4//1;
 5/5=2,38=5/2;
 6/7=2,8=2,9=2,10=2,28=1/1;
 99/5=1,9=1/99;
 Leave Link    1 at Tue May  6 19:25:57 2025, MaxMem=   524288000 cpu:               1.0 elap:               0.3
 (Enter /usr/license/gaussian16_new/rev_c01/avx2/g16/l101.exe)
 ------------------
 SHARC-GAUSSIAN job
 ------------------
 Symbolic Z-matrix:
 Charge =  1 Multiplicity = 2
 N                    -11.09344  -3.06796   20.21407 
 N                    -12.40982  -3.77919   15.72357 
 C                    -11.01477  -2.92916   22.76859 
 C                    -9.06337  -1.38226   23.58265 
 C                    -7.82071  -0.52074   21.43119 
 C                    -9.10963  -1.56796   19.32415 
 C                    -8.73678  -1.2559    16.7271 
 C                    -10.35209  -2.30504   14.93998 
 C                    -10.47811  -2.11933   12.2731 
 C                    -12.52774  -3.42501   11.44317 
 C                    -13.7069  -4.4282    13.63875 
 B                    -12.91758  -4.61773   18.50724 
 F                    -12.43626  -7.19481   18.7824 
 F                    -15.42918  -4.13911   19.16134 
 H                    -7.45958  -0.15316   16.24311 
 H                    -15.09834  -5.37969   13.66604 
 H                    -6.41837   0.63178   21.47023 
 H                    -8.56867  -0.99553   25.29456 
 H                    -13.14075  -3.63751   9.75602 
 H                    -12.11395  -4.02041   23.75213 
 H                    -9.21551  -1.03382   11.31432 
 
 ITRead=  0  0  0  0  0  0  0  0  0  0  0  0  0  0  0  0  0  0  0  0
 ITRead=  0
 MicOpt= -1 -1 -1 -1 -1 -1 -1 -1 -1 -1 -1 -1 -1 -1 -1 -1 -1 -1 -1 -1
 MicOpt= -1
 NAtoms=     21 NQM=       21 NQMF=       0 NMMI=      0 NMMIF=      0
                NMic=       0 NMicF=      0.
                    Isotopes and Nuclear Properties:
 (Nuclear quadrupole moments (NQMom) in fm**2, nuclear magnetic moments (NMagM)
  in nuclear magnetons)

  Atom         1           2           3           4           5           6           7           8           9          10
 IAtWgt=          14          14          12          12          12          12          12          12          12          12
 AtmWgt=  14.0030740  14.0030740  12.0000000  12.0000000  12.0000000  12.0000000  12.0000000  12.0000000  12.0000000  12.0000000
 NucSpn=           2           2           0           0           0           0           0           0           0           0
 AtZEff=  -0.0000000  -0.0000000  -0.0000000  -0.0000000  -0.0000000  -0.0000000  -0.0000000  -0.0000000  -0.0000000  -0.0000000
 NQMom=    2.0440000   2.0440000   0.0000000   0.0000000   0.0000000   0.0000000   0.0000000   0.0000000   0.0000000   0.0000000
 NMagM=    0.4037610   0.4037610   0.0000000   0.0000000   0.0000000   0.0000000   0.0000000   0.0000000   0.0000000   0.0000000
 AtZNuc=   7.0000000   7.0000000   6.0000000   6.0000000   6.0000000   6.0000000   6.0000000   6.0000000   6.0000000   6.0000000

  Atom        11          12          13          14          15          16          17          18          19          20
 IAtWgt=          12          11          19          19           1           1           1           1           1           1
 AtmWgt=  12.0000000  11.0093053  18.9984032  18.9984032   1.0078250   1.0078250   1.0078250   1.0078250   1.0078250   1.0078250
 NucSpn=           0           3           1           1           1           1           1           1           1           1
 AtZEff=  -0.0000000  -0.0000000  -0.0000000  -0.0000000  -0.0000000  -0.0000000  -0.0000000  -0.0000000  -0.0000000  -0.0000000
 NQMom=    0.0000000   4.0590000   0.0000000   0.0000000   0.0000000   0.0000000   0.0000000   0.0000000   0.0000000   0.0000000
 NMagM=    0.0000000   2.6886370   2.6288670   2.6288670   2.7928460   2.7928460   2.7928460   2.7928460   2.7928460   2.7928460
 AtZNuc=   6.0000000   5.0000000   9.0000000   9.0000000   1.0000000   1.0000000   1.0000000   1.0000000   1.0000000   1.0000000

  Atom        21
 IAtWgt=           1
 AtmWgt=   1.0078250
 NucSpn=           1
 AtZEff=  -0.0000000
 NQMom=    0.0000000
 NMagM=    2.7928460
 AtZNuc=   1.0000000
 Background charge distribution read from input stream:
 Point Charges:
 XYZ=   -0.7994    3.4420   10.6968 Q=    0.0202 A=    0.0000 R=    0.0000 C=    0.0000
 XYZ=   -1.4960    3.0656    8.3206 Q=   -0.0149 A=    0.0000 R=    0.0000 C=    0.0000
 XYZ=   -0.7578    3.5155   12.0486 Q=   -0.0586 A=    0.0000 R=    0.0000 C=    0.0000
 XYZ=    0.2749    4.3340   12.4794 Q=   -0.2211 A=    0.0000 R=    0.0000 C=    0.0000
 XYZ=    0.9325    4.7899   11.3409 Q=   -0.1749 A=    0.0000 R=    0.0000 C=    0.0000
 XYZ=    0.2504    4.2358   10.2259 Q=    0.0079 A=    0.0000 R=    0.0000 C=    0.0000
 XYZ=    0.4477    4.4009    8.8516 Q=   -0.0883 A=    0.0000 R=    0.0000 C=    0.0000
 XYZ=   -0.4071    3.8457    7.9059 Q=    0.0286 A=    0.0000 R=    0.0000 C=    0.0000
 XYZ=   -0.4738    3.9440    6.4946 Q=   -0.1611 A=    0.0000 R=    0.0000 C=    0.0000
 XYZ=   -1.5584    3.2531    6.0555 Q=   -0.2328 A=    0.0000 R=    0.0000 C=    0.0000
 XYZ=   -2.1824    2.7222    7.2173 Q=   -0.0193 A=    0.0000 R=    0.0000 C=    0.0000
 XYZ=   -1.7647    2.6219    9.7936 Q=    0.3701 A=    0.0000 R=    0.0000 C=    0.0000
 XYZ=   -1.5100    1.2582    9.9392 Q=   -0.3388 A=    0.0000 R=    0.0000 C=    0.0000
 XYZ=   -3.0938    2.8752   10.1397 Q=   -0.3446 A=    0.0000 R=    0.0000 C=    0.0000
 XYZ=    1.1236    4.9845    8.5955 Q=    0.1813 A=    0.0000 R=    0.0000 C=    0.0000
 XYZ=   -2.9187    2.2187    7.2318 Q=    0.1734 A=    0.0000 R=    0.0000 C=    0.0000
 XYZ=    1.6745    5.3998   11.3616 Q=    0.1764 A=    0.0000 R=    0.0000 C=    0.0000
 XYZ=    0.5367    4.5387   13.3853 Q=    0.1742 A=    0.0000 R=    0.0000 C=    0.0000
 XYZ=   -1.8828    3.1406    5.1627 Q=    0.1776 A=    0.0000 R=    0.0000 C=    0.0000
 XYZ=   -1.3394    2.9380   12.5691 Q=    0.1817 A=    0.0000 R=    0.0000 C=    0.0000
 XYZ=    0.1944    4.5184    5.9873 Q=    0.1629 A=    0.0000 R=    0.0000 C=    0.0000
 Pt Chg Charge=             -0.0000 electrons
 Pt Chg Dipole moment (Debye):
    X=              3.4752    Y=              3.5747    Z=             -1.6268  Tot=              5.2443
 Pt Chg Quadrupole moment (Debye-Ang):
   XX=             -3.0455   YY=             23.2809   ZZ=            -11.8645
   XY=             13.4282   XZ=             38.9762   YZ=             30.1425
 Pt Chg Traceless Quadrupole moment (Debye-Ang):
   XX=             -5.8358   YY=             20.4906   ZZ=            -14.6548
   XY=             13.4282   XZ=             38.9762   YZ=             30.1425
 Pt Chg Octapole moment (Debye-Ang**2):
  XXX=             26.5311  YYY=            136.3778  ZZZ=             97.3220  XYY=             65.3640
  XXY=             -2.0136  XXZ=            -50.0479  XZZ=            410.8379  YZZ=            320.4385
  YYZ=            208.9271  XYZ=            141.1756
 Pt Chg Hexadecapole moment (Debye-Ang**3):
 XXXX=            -70.5535 YYYY=            787.1618 ZZZZ=           4938.2273 XXXY=             94.7584
 XXXZ=            336.6740 YYYX=            331.9311 YYYZ=           1253.2823 ZZZX=           4198.2819
 ZZZY=           4035.3339 XXYY=             24.6405 XXZZ=           -601.9243 YYZZ=           2159.5771
 XXYZ=            -58.8961 YYXZ=            663.1288 ZZXY=           1454.4260
 Leave Link  101 at Tue May  6 19:25:57 2025, MaxMem=   524288000 cpu:               0.2 elap:               0.1
 (Enter /usr/license/gaussian16_new/rev_c01/avx2/g16/l202.exe)
                          Input orientation:                          
 ---------------------------------------------------------------------
 Center     Atomic      Atomic             Coordinates (Angstroms)
 Number     Number       Type             X           Y           Z
 ---------------------------------------------------------------------
      1          7           0       -5.870397   -1.623493   10.696823
      2          7           0       -6.566994   -1.999859    8.320554
      3          6           0       -5.828766   -1.550043   12.048621
      4          6           0       -4.796127   -0.731458   12.479403
      5          6           0       -4.138539   -0.275563   11.340896
      6          6           0       -4.820611   -0.829729   10.225902
      7          6           0       -4.623304   -0.664594    8.851599
      8          6           0       -5.478091   -1.219772    7.905895
      9          6           0       -5.544777   -1.121502    6.494644
     10          6           0       -6.629393   -1.812436    6.055465
     11          6           0       -7.253378   -2.343300    7.217316
     12          5           0       -6.835691   -2.443597    9.793609
     13          9           0       -6.580984   -3.807331    9.939218
     14          9           0       -8.164769   -2.190322   10.139746
     15          1           0       -3.947440   -0.081048    8.595481
     16          1           0       -7.989698   -2.846811    7.231759
     17          1           0       -3.396456    0.334323   11.361554
     18          1           0       -4.534343   -0.526812   13.385304
     19          1           0       -6.953785   -1.924890    5.162663
     20          1           0       -6.410428   -2.127510   12.569086
     21          1           0       -4.876636   -0.547074    5.987278
 ---------------------------------------------------------------------
                    Distance matrix (angstroms):
                    1          2          3          4          5
     1  N    0.000000
     2  N    2.504706   0.000000
     3  C    1.354432   3.826983   0.000000
     4  C    2.264371   4.694767   1.386361   0.000000
     5  C    2.287155   4.241822   2.232049   1.391568   0.000000
     6  C    1.397812   2.837148   2.203981   2.255776   1.419695
     7  C    2.424784   2.417203   3.529605   3.632534   2.565724
     8  C    2.847134   1.402208   4.170639   4.649785   3.805938
     9  C    4.244565   2.269446   5.577720   6.044001   5.116569
    10  C    4.706801   2.273686   6.052088   6.767301   6.041698
    11  C    3.812837   1.343953   5.099047   6.027079   5.566118
    12  B    1.555686   1.561727   2.626293   3.782160   3.790659
    13  F    2.418274   2.426360   3.179742   4.370269   4.517037
    14  F    2.428121   2.428708   3.083938   4.353163   4.617314
    15  H    3.239219   3.258755   4.197798   4.028418   2.758923
    16  H    4.242006   1.981638   5.436303   6.497029   6.190941
    17  H    3.224174   4.974776   3.152622   2.084359   0.960768
    18  H    3.196198   5.652719   2.123500   0.964918   2.097473
    19  H    5.647256   3.182374   6.987317   7.721040   6.986877
    20  H    2.012718   4.253332   0.970918   2.136111   3.177993
    21  H    4.932145   3.226774   6.217104   6.495242   5.411075
                    6          7          8          9         10
     6  C    0.000000
     7  C    1.398180   0.000000
     8  C    2.442713   1.390410   0.000000
     9  C    3.812064   2.571598   1.416239   0.000000
    10  C    4.650801   3.627713   2.258504   1.358919   0.000000
    11  C    4.154617   3.522247   2.210905   2.221343   1.421644
    12  B    2.617631   2.991135   2.627601   3.781212   3.796662
    13  F    3.470910   3.859044   3.470769   4.489153   4.366404
    14  F    3.611375   4.065605   3.626334   4.614488   4.379672
    15  H    1.995300   0.928932   2.028574   2.836820   4.079492
    16  H    4.803814   4.326495   3.067554   3.081829   2.074615
    17  H    2.161698   2.966962   4.323193   5.515571   6.573814
    18  H    3.186774   4.536670   5.603104   6.989694   7.731016
    19  H    5.602339   4.541777   3.193773   2.098788   0.956541
    20  H    3.114846   4.376488   4.841342   6.217737   6.524912
    21  H    4.248407   2.877903   2.120227   1.016760   2.162856
                   11         12         13         14         15
    11  C    0.000000
    12  B    2.611859   0.000000
    13  F    3.162950   1.394937   0.000000
    14  F    3.065067   1.396570   2.272291   0.000000
    15  H    4.236313   3.919074   4.756718   4.961820   0.000000
    16  H    0.892132   2.838554   3.199595   2.986305   5.084194
    17  H    6.262605   4.690803   5.414569   5.532039   2.850838
    18  H    6.981179   4.676595   5.179387   5.145960   4.846191
    19  H    2.118118   4.661402   5.147625   5.129161   4.921596
    20  H    5.422045   2.825603   3.125235   2.997224   5.103318
    21  H    3.223092   4.682185   5.399251   5.545726   2.807723
                   16         17         18         19         20
    16  H    0.000000
    17  H    6.947855   0.000000
    18  H    7.428862   2.476268   0.000000
    19  H    2.490826   7.495658   8.684477   0.000000
    20  H    5.612357   4.074651   2.597718   7.429091   0.000000
    21  H    4.065548   5.643637   7.405968   2.625436   6.940497
                   21
    21  H    0.000000
 Symmetry turned off by external request.
 Stoichiometry    C9H7BF2N2(1+,2)
 Framework group  C1[X(C9H7BF2N2)]
 Deg. of freedom    57
 Full point group                 C1      NOp   1
 Rotational constants (GHZ):           1.2887992           0.6413832           0.4683174
 Leave Link  202 at Tue May  6 19:25:57 2025, MaxMem=   524288000 cpu:               0.0 elap:               0.0
 (Enter /usr/license/gaussian16_new/rev_c01/avx2/g16/l301.exe)
 Standard basis: def2SVP (5D, 7F)
 Ernie: Thresh=  0.10000D-02 Tol=  0.10000D-05 Strict=F.
 AO basis set in the form of general basis input (Overlap normalization):
      1 0
 S   5 1.00       0.000000000000
      0.1712841585D+04 -0.5447799580D-02
      0.2576481268D+03 -0.4062717463D-01
      0.5845824585D+02 -0.1811196225D+00
      0.1619836791D+02 -0.4684397556D+00
      0.5005260081D+01 -0.4461684629D+00
 S   1 1.00       0.000000000000
      0.5873185657D+00  0.1000000000D+01
 S   1 1.00       0.000000000000
      0.1876459225D+00  0.1000000000D+01
 P   3 1.00       0.000000000000
      0.1357147023D+02 -0.5884811697D-01
      0.2925737287D+01 -0.3202462476D+00
      0.7992775075D+00 -0.7532822652D+00
 P   1 1.00       0.000000000000
      0.2195434803D+00  0.1000000000D+01
 D   1 1.00       0.000000000000
      0.1000000000D+01  0.1000000000D+01
 ****
      2 0
 S   5 1.00       0.000000000000
      0.1712841585D+04 -0.5447799580D-02
      0.2576481268D+03 -0.4062717463D-01
      0.5845824585D+02 -0.1811196225D+00
      0.1619836791D+02 -0.4684397556D+00
      0.5005260081D+01 -0.4461684629D+00
 S   1 1.00       0.000000000000
      0.5873185657D+00  0.1000000000D+01
 S   1 1.00       0.000000000000
      0.1876459225D+00  0.1000000000D+01
 P   3 1.00       0.000000000000
      0.1357147023D+02 -0.5884811697D-01
      0.2925737287D+01 -0.3202462476D+00
      0.7992775075D+00 -0.7532822652D+00
 P   1 1.00       0.000000000000
      0.2195434803D+00  0.1000000000D+01
 D   1 1.00       0.000000000000
      0.1000000000D+01  0.1000000000D+01
 ****
      3 0
 S   5 1.00       0.000000000000
      0.1238401694D+04  0.5517365048D-02
      0.1862900499D+03  0.4108882856D-01
      0.4225117635D+02  0.1822538213D+00
      0.1167655793D+02  0.4682845944D+00
      0.3593050648D+01  0.4457581734D+00
 S   1 1.00       0.000000000000
      0.4024514736D+00  0.1000000000D+01
 S   1 1.00       0.000000000000
      0.1309018267D+00  0.1000000000D+01
 P   3 1.00       0.000000000000
      0.9468097062D+01  0.5688833201D-01
      0.2010354514D+01  0.3129405934D+00
      0.5477100471D+00  0.7606501651D+00
 P   1 1.00       0.000000000000
      0.1526861379D+00  0.1000000000D+01
 D   1 1.00       0.000000000000
      0.8000000000D+00  0.1000000000D+01
 ****
      4 0
 S   5 1.00       0.000000000000
      0.1238401694D+04  0.5517365048D-02
      0.1862900499D+03  0.4108882856D-01
      0.4225117635D+02  0.1822538213D+00
      0.1167655793D+02  0.4682845944D+00
      0.3593050648D+01  0.4457581734D+00
 S   1 1.00       0.000000000000
      0.4024514736D+00  0.1000000000D+01
 S   1 1.00       0.000000000000
      0.1309018267D+00  0.1000000000D+01
 P   3 1.00       0.000000000000
      0.9468097062D+01  0.5688833201D-01
      0.2010354514D+01  0.3129405934D+00
      0.5477100471D+00  0.7606501651D+00
 P   1 1.00       0.000000000000
      0.1526861379D+00  0.1000000000D+01
 D   1 1.00       0.000000000000
      0.8000000000D+00  0.1000000000D+01
 ****
      5 0
 S   5 1.00       0.000000000000
      0.1238401694D+04  0.5517365048D-02
      0.1862900499D+03  0.4108882856D-01
      0.4225117635D+02  0.1822538213D+00
      0.1167655793D+02  0.4682845944D+00
      0.3593050648D+01  0.4457581734D+00
 S   1 1.00       0.000000000000
      0.4024514736D+00  0.1000000000D+01
 S   1 1.00       0.000000000000
      0.1309018267D+00  0.1000000000D+01
 P   3 1.00       0.000000000000
      0.9468097062D+01  0.5688833201D-01
      0.2010354514D+01  0.3129405934D+00
      0.5477100471D+00  0.7606501651D+00
 P   1 1.00       0.000000000000
      0.1526861379D+00  0.1000000000D+01
 D   1 1.00       0.000000000000
      0.8000000000D+00  0.1000000000D+01
 ****
      6 0
 S   5 1.00       0.000000000000
      0.1238401694D+04  0.5517365048D-02
      0.1862900499D+03  0.4108882856D-01
      0.4225117635D+02  0.1822538213D+00
      0.1167655793D+02  0.4682845944D+00
      0.3593050648D+01  0.4457581734D+00
 S   1 1.00       0.000000000000
      0.4024514736D+00  0.1000000000D+01
 S   1 1.00       0.000000000000
      0.1309018267D+00  0.1000000000D+01
 P   3 1.00       0.000000000000
      0.9468097062D+01  0.5688833201D-01
      0.2010354514D+01  0.3129405934D+00
      0.5477100471D+00  0.7606501651D+00
 P   1 1.00       0.000000000000
      0.1526861379D+00  0.1000000000D+01
 D   1 1.00       0.000000000000
      0.8000000000D+00  0.1000000000D+01
 ****
      7 0
 S   5 1.00       0.000000000000
      0.1238401694D+04  0.5517365048D-02
      0.1862900499D+03  0.4108882856D-01
      0.4225117635D+02  0.1822538213D+00
      0.1167655793D+02  0.4682845944D+00
      0.3593050648D+01  0.4457581734D+00
 S   1 1.00       0.000000000000
      0.4024514736D+00  0.1000000000D+01
 S   1 1.00       0.000000000000
      0.1309018267D+00  0.1000000000D+01
 P   3 1.00       0.000000000000
      0.9468097062D+01  0.5688833201D-01
      0.2010354514D+01  0.3129405934D+00
      0.5477100471D+00  0.7606501651D+00
 P   1 1.00       0.000000000000
      0.1526861379D+00  0.1000000000D+01
 D   1 1.00       0.000000000000
      0.8000000000D+00  0.1000000000D+01
 ****
      8 0
 S   5 1.00       0.000000000000
      0.1238401694D+04  0.5517365048D-02
      0.1862900499D+03  0.4108882856D-01
      0.4225117635D+02  0.1822538213D+00
      0.1167655793D+02  0.4682845944D+00
      0.3593050648D+01  0.4457581734D+00
 S   1 1.00       0.000000000000
      0.4024514736D+00  0.1000000000D+01
 S   1 1.00       0.000000000000
      0.1309018267D+00  0.1000000000D+01
 P   3 1.00       0.000000000000
      0.9468097062D+01  0.5688833201D-01
      0.2010354514D+01  0.3129405934D+00
      0.5477100471D+00  0.7606501651D+00
 P   1 1.00       0.000000000000
      0.1526861379D+00  0.1000000000D+01
 D   1 1.00       0.000000000000
      0.8000000000D+00  0.1000000000D+01
 ****
      9 0
 S   5 1.00       0.000000000000
      0.1238401694D+04  0.5517365048D-02
      0.1862900499D+03  0.4108882856D-01
      0.4225117635D+02  0.1822538213D+00
      0.1167655793D+02  0.4682845944D+00
      0.3593050648D+01  0.4457581734D+00
 S   1 1.00       0.000000000000
      0.4024514736D+00  0.1000000000D+01
 S   1 1.00       0.000000000000
      0.1309018267D+00  0.1000000000D+01
 P   3 1.00       0.000000000000
      0.9468097062D+01  0.5688833201D-01
      0.2010354514D+01  0.3129405934D+00
      0.5477100471D+00  0.7606501651D+00
 P   1 1.00       0.000000000000
      0.1526861379D+00  0.1000000000D+01
 D   1 1.00       0.000000000000
      0.8000000000D+00  0.1000000000D+01
 ****
     10 0
 S   5 1.00       0.000000000000
      0.1238401694D+04  0.5517365048D-02
      0.1862900499D+03  0.4108882856D-01
      0.4225117635D+02  0.1822538213D+00
      0.1167655793D+02  0.4682845944D+00
      0.3593050648D+01  0.4457581734D+00
 S   1 1.00       0.000000000000
      0.4024514736D+00  0.1000000000D+01
 S   1 1.00       0.000000000000
      0.1309018267D+00  0.1000000000D+01
 P   3 1.00       0.000000000000
      0.9468097062D+01  0.5688833201D-01
      0.2010354514D+01  0.3129405934D+00
      0.5477100471D+00  0.7606501651D+00
 P   1 1.00       0.000000000000
      0.1526861379D+00  0.1000000000D+01
 D   1 1.00       0.000000000000
      0.8000000000D+00  0.1000000000D+01
 ****
     11 0
 S   5 1.00       0.000000000000
      0.1238401694D+04  0.5517365048D-02
      0.1862900499D+03  0.4108882856D-01
      0.4225117635D+02  0.1822538213D+00
      0.1167655793D+02  0.4682845944D+00
      0.3593050648D+01  0.4457581734D+00
 S   1 1.00       0.000000000000
      0.4024514736D+00  0.1000000000D+01
 S   1 1.00       0.000000000000
      0.1309018267D+00  0.1000000000D+01
 P   3 1.00       0.000000000000
      0.9468097062D+01  0.5688833201D-01
      0.2010354514D+01  0.3129405934D+00
      0.5477100471D+00  0.7606501651D+00
 P   1 1.00       0.000000000000
      0.1526861379D+00  0.1000000000D+01
 D   1 1.00       0.000000000000
      0.8000000000D+00  0.1000000000D+01
 ****
     12 0
 S   5 1.00       0.000000000000
      0.8393183009D+03 -0.5628883598D-02
      0.1262646484D+03 -0.4183279461D-01
      0.2862060076D+02 -0.1841748813D+00
      0.7879372271D+01 -0.4683965503D+00
      0.2408885717D+01 -0.4445793088D+00
 S   1 1.00       0.000000000000
      0.2510510904D+00  0.1000000000D+01
 S   1 1.00       0.000000000000
      0.8364886607D-01  0.1000000000D+01
 P   3 1.00       0.000000000000
      0.6033222362D+01 -0.5403250032D-01
      0.1249915787D+01 -0.3019403439D+00
      0.3387167635D+00 -0.7717079166D+00
 P   1 1.00       0.000000000000
      0.9641563235D-01  0.1000000000D+01
 D   1 1.00       0.000000000000
      0.5000000000D+00  0.1000000000D+01
 ****
     13 0
 S   5 1.00       0.000000000000
      0.2894832599D+04 -0.5349321176D-02
      0.4354193912D+03 -0.3996773437D-01
      0.9884332887D+02 -0.1794126179D+00
      0.2748519800D+02 -0.4683246869D+00
      0.8540549817D+01 -0.4472416053D+00
 S   1 1.00       0.000000000000
      0.1065457804D+01  0.1000000000D+01
 S   1 1.00       0.000000000000
      0.3324734675D+00  0.1000000000D+01
 P   3 1.00       0.000000000000
      0.2269663392D+02 -0.6478214824D-01
      0.4987233926D+01 -0.3403578536D+00
      0.1349161395D+01 -0.7348581537D+00
 P   1 1.00       0.000000000000
      0.3482988198D+00  0.1000000000D+01
 D   1 1.00       0.000000000000
      0.1400000000D+01  0.1000000000D+01
 ****
     14 0
 S   5 1.00       0.000000000000
      0.2894832599D+04 -0.5349321176D-02
      0.4354193912D+03 -0.3996773437D-01
      0.9884332887D+02 -0.1794126179D+00
      0.2748519800D+02 -0.4683246869D+00
      0.8540549817D+01 -0.4472416053D+00
 S   1 1.00       0.000000000000
      0.1065457804D+01  0.1000000000D+01
 S   1 1.00       0.000000000000
      0.3324734675D+00  0.1000000000D+01
 P   3 1.00       0.000000000000
      0.2269663392D+02 -0.6478214824D-01
      0.4987233926D+01 -0.3403578536D+00
      0.1349161395D+01 -0.7348581537D+00
 P   1 1.00       0.000000000000
      0.3482988198D+00  0.1000000000D+01
 D   1 1.00       0.000000000000
      0.1400000000D+01  0.1000000000D+01
 ****
     15 0
 S   3 1.00       0.000000000000
      0.1301070100D+02  0.3348548481D-01
      0.1962257200D+01  0.2347218709D+00
      0.4445379600D+00  0.8137702853D+00
 S   1 1.00       0.000000000000
      0.1219496200D+00  0.1000000000D+01
 P   1 1.00       0.000000000000
      0.8000000000D+00  0.1000000000D+01
 ****
     16 0
 S   3 1.00       0.000000000000
      0.1301070100D+02  0.3348548481D-01
      0.1962257200D+01  0.2347218709D+00
      0.4445379600D+00  0.8137702853D+00
 S   1 1.00       0.000000000000
      0.1219496200D+00  0.1000000000D+01
 P   1 1.00       0.000000000000
      0.8000000000D+00  0.1000000000D+01
 ****
     17 0
 S   3 1.00       0.000000000000
      0.1301070100D+02  0.3348548481D-01
      0.1962257200D+01  0.2347218709D+00
      0.4445379600D+00  0.8137702853D+00
 S   1 1.00       0.000000000000
      0.1219496200D+00  0.1000000000D+01
 P   1 1.00       0.000000000000
      0.8000000000D+00  0.1000000000D+01
 ****
     18 0
 S   3 1.00       0.000000000000
      0.1301070100D+02  0.3348548481D-01
      0.1962257200D+01  0.2347218709D+00
      0.4445379600D+00  0.8137702853D+00
 S   1 1.00       0.000000000000
      0.1219496200D+00  0.1000000000D+01
 P   1 1.00       0.000000000000
      0.8000000000D+00  0.1000000000D+01
 ****
     19 0
 S   3 1.00       0.000000000000
      0.1301070100D+02  0.3348548481D-01
      0.1962257200D+01  0.2347218709D+00
      0.4445379600D+00  0.8137702853D+00
 S   1 1.00       0.000000000000
      0.1219496200D+00  0.1000000000D+01
 P   1 1.00       0.000000000000
      0.8000000000D+00  0.1000000000D+01
 ****
     20 0
 S   3 1.00       0.000000000000
      0.1301070100D+02  0.3348548481D-01
      0.1962257200D+01  0.2347218709D+00
      0.4445379600D+00  0.8137702853D+00
 S   1 1.00       0.000000000000
      0.1219496200D+00  0.1000000000D+01
 P   1 1.00       0.000000000000
      0.8000000000D+00  0.1000000000D+01
 ****
     21 0
 S   3 1.00       0.000000000000
      0.1301070100D+02  0.3348548481D-01
      0.1962257200D+01  0.2347218709D+00
      0.4445379600D+00  0.8137702853D+00
 S   1 1.00       0.000000000000
      0.1219496200D+00  0.1000000000D+01
 P   1 1.00       0.000000000000
      0.8000000000D+00  0.1000000000D+01
 ****

   231 basis functions,   399 primitive gaussians,   245 cartesian basis functions
    49 alpha electrons       48 beta electrons
       nuclear repulsion energy       864.2580296774 Hartrees.
 IExCor= 4639 DFT=T Ex+Corr=wB97XD ExCW=0 ScaHFX=  1.000000
 ScaDFX=  1.000000  1.000000  1.000000  1.000000 ScalE2=  1.000000  1.000000
 IRadAn=      5 IRanWt=     -1 IRanGd=            0 ICorTp=0 IEmpDi=121
 HFx  wShort=  0.000000 wLong=  0.200000 cFull=  0.222036 cShort=  0.000000 cLong=  0.777964
 DFx  wShort=  0.000000 wLong=  0.200000 cFull=  0.000000 cShort=  0.000000 cLong=  1.000000
 NAtoms=   21 NActive=   21 NUniq=   21 SFac= 1.00D+00 NAtFMM=   60 NAOKFM=F Big=F
 Integral buffers will be    131072 words long.
 Raffenetti 2 integral format.
 Two-electron integral symmetry is turned off.
 Background charge distribution read from rwf.
 PtFMM for NChg=        42 BoxLen=    40.00 Levels= 1 LMax=20 SMax=    18.6 ICnFMM=     1:
 Self energy of the charges =        -0.1686783052 a.u.
 MM   energy of the charges =         0.0000000000 a.u.
 Nuclei-charges interaction =        -1.1677700658 a.u.
 Nuclear repulsion after external point charges =      862.9215813064 Hartrees.
 R6Disp:  Grimme-D2 Dispersion energy=       -0.0135649705 Hartrees.
 Nuclear repulsion after empirical dispersion term =      862.9080163359 Hartrees.
 Leave Link  301 at Tue May  6 19:25:57 2025, MaxMem=   524288000 cpu:               0.2 elap:               0.1
 (Enter /usr/license/gaussian16_new/rev_c01/avx2/g16/l302.exe)
 NPDir=0 NMtPBC=     1 NCelOv=     1 NCel=       1 NClECP=     1 NCelD=      1
         NCelK=      1 NCelE2=     1 NClLst=     1 CellRange=     0.0.
 One-electron integrals computed using PRISM.
   1 Symmetry operations used in ECPInt.
 ECPInt:  NShTT=    5565 NPrTT=   20909 LenC2=    5389 LenP2D=   15019.
 LDataN:  DoStor=T MaxTD1= 4 Len=   56
 NBasis=   231 RedAO= T EigKep=  6.04D-04  NBF=   231
 NBsUse=   231 1.00D-06 EigRej= -1.00D+00 NBFU=   231
 Precomputing XC quadrature grid using
 IXCGrd= 4 IRadAn=           5 IRanWt=          -1 IRanGd=           0 AccXCQ= 0.00D+00.
 Generated NRdTot=       0 NPtTot=           0 NUsed=           0 NTot=          32
 NSgBfM=   245   245   245   245   245 MxSgAt=    21 MxSgA2=    21.
 Leave Link  302 at Tue May  6 19:25:57 2025, MaxMem=   524288000 cpu:               0.8 elap:               0.2
 (Enter /usr/license/gaussian16_new/rev_c01/avx2/g16/l303.exe)
 DipDrv:  MaxL=1.
 Leave Link  303 at Tue May  6 19:25:58 2025, MaxMem=   524288000 cpu:               0.2 elap:               0.1
 (Enter /usr/license/gaussian16_new/rev_c01/avx2/g16/l401.exe)
 ExpMin= 8.36D-02 ExpMax= 2.89D+03 ExpMxC= 4.35D+02 IAcc=3 IRadAn=         5 AccDes= 0.00D+00
 Harris functional with IExCor= 4639 and IRadAn=       5 diagonalized for initial guess.
 HarFok:  IExCor= 4639 AccDes= 0.00D+00 IRadAn=         5 IDoV= 1 UseB2=F ITyADJ=14
 ICtDFT=  3500011 ScaDFX=  1.000000  1.000000  1.000000  1.000000
 FoFCou: FMM=F IPFlag=           0 FMFlag=      100000 FMFlg1=           0
         NFxFlg=           0 DoJE=T BraDBF=F KetDBF=T FulRan=T
         wScrn=  0.000000 ICntrl=       500 IOpCl=  0 I1Cent=   200000004 NGrid=           0
         NMat0=    1 NMatS0=      1 NMatT0=    0 NMatD0=    1 NMtDS0=    0 NMtDT0=    0
 Symmetry not used in FoFCou.
 Harris En= -653.257509765827    
 JPrj=0 DoOrth=F DoCkMO=F.
 Initial guess <Sx>= 0.0000 <Sy>= 0.0000 <Sz>= 0.5000 <S**2>= 0.7500 S= 0.5000
 Leave Link  401 at Tue May  6 19:25:59 2025, MaxMem=   524288000 cpu:               4.3 elap:               1.1
 (Enter /usr/license/gaussian16_new/rev_c01/avx2/g16/l502.exe)
 Two-electron integral symmetry not used.
 UHF open shell SCF:
 Using DIIS extrapolation, IDIIS=  1040.
 NGot=   524288000 LenX=   524163955 LenY=   524103489
 Requested convergence on RMS density matrix=1.00D-08 within 128 cycles.
 Requested convergence on MAX density matrix=1.00D-06.
 Requested convergence on             energy=1.00D-06.
 No special actions if energy rises.
 Fock matrices will be formed incrementally for  20 cycles.
 Integral accuracy reduced to 1.0D-05 until final iterations.

 Cycle   1  Pass 0  IDiag  1:
 FoFJK:  IHMeth= 1 ICntrl=       0 DoSepK=T KAlg= 0 I1Cent=           0 FoldK=F
 IRaf=         1 NMat=       1 IRICut=       1 DoRegI=T DoRafI=F ISym2E= 0 IDoP0=0 IntGTp=1.
 FoFCou: FMM=F IPFlag=           0 FMFlag=      100000 FMFlg1=           0
         NFxFlg=           0 DoJE=T BraDBF=F KetDBF=F FulRan=T
         wScrn=  0.000000 ICntrl=       500 IOpCl=  0 I1Cent=           0 NGrid=           0
         NMat0=    1 NMatS0=      1 NMatT0=    0 NMatD0=    1 NMtDS0=    0 NMtDT0=    0
 Symmetry not used in FoFCou.
 E= -680.177722328230    
 DIIS: error= 5.33D-02 at cycle   1 NSaved=   1.
 NSaved= 1 IEnMin= 1 EnMin= -680.177722328230     IErMin= 1 ErrMin= 5.33D-02
 ErrMax= 5.33D-02  0.00D+00 EMaxC= 1.00D-01 BMatC= 1.84D+00 BMatP= 1.84D+00
 IDIUse=3 WtCom= 4.67D-01 WtEn= 5.33D-01
 Coeff-Com:  0.100D+01
 Coeff-En:   0.100D+01
 Coeff:      0.100D+01
 Gap=     0.241 Goal=   None    Shift=    0.000
 Gap=     0.253 Goal=   None    Shift=    0.000
 GapD=    0.241 DampG=1.000 DampE=0.500 DampFc=0.5000 IDamp=-1.
 Damping current iteration by 5.00D-01
 RMSDP=4.62D-03 MaxDP=1.14D-01              OVMax= 2.28D-01

 Cycle   2  Pass 0  IDiag  1:
 RMSU=  2.30D-03    CP:  9.89D-01
 E= -680.291075052409     Delta-E=       -0.113352724180 Rises=F Damp=T
 DIIS: error= 1.67D-02 at cycle   2 NSaved=   2.
 NSaved= 2 IEnMin= 2 EnMin= -680.291075052409     IErMin= 2 ErrMin= 1.67D-02
 ErrMax= 1.67D-02  0.00D+00 EMaxC= 1.00D-01 BMatC= 2.35D-01 BMatP= 1.84D+00
 IDIUse=3 WtCom= 8.33D-01 WtEn= 1.67D-01
 Coeff-Com: -0.109D+00 0.111D+01
 Coeff-En:   0.126D-01 0.987D+00
 Coeff:     -0.890D-01 0.109D+01
 Gap=     0.287 Goal=   None    Shift=    0.000
 Gap=     0.248 Goal=   None    Shift=    0.000
 RMSDP=1.76D-03 MaxDP=5.06D-02 DE=-1.13D-01 OVMax= 1.49D-01

 Cycle   3  Pass 0  IDiag  1:
 RMSU=  1.66D-03    CP:  9.74D-01  1.21D+00
 E= -680.412559693172     Delta-E=       -0.121484640763 Rises=F Damp=F
 DIIS: error= 7.60D-03 at cycle   3 NSaved=   3.
 NSaved= 3 IEnMin= 3 EnMin= -680.412559693172     IErMin= 3 ErrMin= 7.60D-03
 ErrMax= 7.60D-03  0.00D+00 EMaxC= 1.00D-01 BMatC= 6.49D-02 BMatP= 2.35D-01
 IDIUse=3 WtCom= 9.24D-01 WtEn= 7.60D-02
 Coeff-Com: -0.146D+00 0.382D+00 0.764D+00
 Coeff-En:   0.000D+00 0.000D+00 0.100D+01
 Coeff:     -0.135D+00 0.353D+00 0.782D+00
 Gap=     0.255 Goal=   None    Shift=    0.000
 Gap=     0.223 Goal=   None    Shift=    0.000
 RMSDP=6.69D-04 MaxDP=2.61D-02 DE=-1.21D-01 OVMax= 5.73D-02

 Cycle   4  Pass 0  IDiag  1:
 RMSU=  4.25D-04    CP:  9.72D-01  1.41D+00  8.63D-01
 E= -680.425527760351     Delta-E=       -0.012968067179 Rises=F Damp=F
 DIIS: error= 4.17D-03 at cycle   4 NSaved=   4.
 NSaved= 4 IEnMin= 4 EnMin= -680.425527760351     IErMin= 4 ErrMin= 4.17D-03
 ErrMax= 4.17D-03  0.00D+00 EMaxC= 1.00D-01 BMatC= 1.65D-02 BMatP= 6.49D-02
 IDIUse=3 WtCom= 9.58D-01 WtEn= 4.17D-02
 Coeff-Com: -0.650D-01 0.123D+00 0.431D+00 0.511D+00
 Coeff-En:   0.000D+00 0.000D+00 0.910D-01 0.909D+00
 Coeff:     -0.623D-01 0.118D+00 0.417D+00 0.528D+00
 Gap=     0.261 Goal=   None    Shift=    0.000
 Gap=     0.221 Goal=   None    Shift=    0.000
 RMSDP=2.37D-04 MaxDP=7.72D-03 DE=-1.30D-02 OVMax= 2.19D-02

 Cycle   5  Pass 0  IDiag  1:
 RMSU=  1.48D-04    CP:  9.71D-01  1.39D+00  9.46D-01  7.26D-01
 E= -680.429122932397     Delta-E=       -0.003595172047 Rises=F Damp=F
 DIIS: error= 1.86D-03 at cycle   5 NSaved=   5.
 NSaved= 5 IEnMin= 5 EnMin= -680.429122932397     IErMin= 5 ErrMin= 1.86D-03
 ErrMax= 1.86D-03  0.00D+00 EMaxC= 1.00D-01 BMatC= 5.07D-04 BMatP= 1.65D-02
 IDIUse=3 WtCom= 9.81D-01 WtEn= 1.86D-02
 Coeff-Com:  0.119D-01-0.305D-01-0.320D-01 0.457D-01 0.100D+01
 Coeff-En:   0.000D+00 0.000D+00 0.000D+00 0.000D+00 0.100D+01
 Coeff:      0.116D-01-0.299D-01-0.314D-01 0.448D-01 0.100D+01
 Gap=     0.266 Goal=   None    Shift=    0.000
 Gap=     0.224 Goal=   None    Shift=    0.000
 RMSDP=1.07D-04 MaxDP=5.39D-03 DE=-3.60D-03 OVMax= 1.95D-02

 Cycle   6  Pass 0  IDiag  1:
 RMSU=  7.61D-05    CP:  9.71D-01  1.40D+00  9.63D-01  8.35D-01  1.33D+00
 E= -680.429715888626     Delta-E=       -0.000592956228 Rises=F Damp=F
 DIIS: error= 1.06D-03 at cycle   6 NSaved=   6.
 NSaved= 6 IEnMin= 6 EnMin= -680.429715888626     IErMin= 6 ErrMin= 1.06D-03
 ErrMax= 1.06D-03  0.00D+00 EMaxC= 1.00D-01 BMatC= 1.79D-04 BMatP= 5.07D-04
 IDIUse=3 WtCom= 9.89D-01 WtEn= 1.06D-02
 Coeff-Com:  0.230D-01-0.432D-01-0.141D+00-0.176D+00 0.112D+00 0.122D+01
 Coeff-En:   0.000D+00 0.000D+00 0.000D+00 0.000D+00 0.000D+00 0.100D+01
 Coeff:      0.228D-01-0.427D-01-0.139D+00-0.174D+00 0.111D+00 0.122D+01
 Gap=     0.270 Goal=   None    Shift=    0.000
 Gap=     0.228 Goal=   None    Shift=    0.000
 RMSDP=1.09D-04 MaxDP=5.58D-03 DE=-5.93D-04 OVMax= 2.04D-02

 Cycle   7  Pass 0  IDiag  1:
 RMSU=  3.71D-05    CP:  9.70D-01  1.40D+00  9.79D-01  9.20D-01  1.82D+00
                    CP:  1.75D+00
 E= -680.430083077909     Delta-E=       -0.000367189283 Rises=F Damp=F
 DIIS: error= 5.27D-04 at cycle   7 NSaved=   7.
 NSaved= 7 IEnMin= 7 EnMin= -680.430083077909     IErMin= 7 ErrMin= 5.27D-04
 ErrMax= 5.27D-04  0.00D+00 EMaxC= 1.00D-01 BMatC= 4.70D-05 BMatP= 1.79D-04
 IDIUse=3 WtCom= 9.95D-01 WtEn= 5.27D-03
 Coeff-Com: -0.704D-04 0.281D-02-0.174D-01-0.429D-01-0.253D+00 0.152D+00
 Coeff-Com:  0.116D+01
 Coeff-En:   0.000D+00 0.000D+00 0.000D+00 0.000D+00 0.000D+00 0.000D+00
 Coeff-En:   0.100D+01
 Coeff:     -0.701D-04 0.280D-02-0.173D-01-0.427D-01-0.252D+00 0.151D+00
 Coeff:      0.116D+01
 Gap=     0.273 Goal=   None    Shift=    0.000
 Gap=     0.229 Goal=   None    Shift=    0.000
 RMSDP=6.65D-05 MaxDP=3.24D-03 DE=-3.67D-04 OVMax= 1.16D-02

 Cycle   8  Pass 0  IDiag  1:
 RMSU=  1.96D-05    CP:  9.70D-01  1.40D+00  9.79D-01  9.58D-01  2.07D+00
                    CP:  2.34D+00  1.54D+00
 E= -680.430187569429     Delta-E=       -0.000104491521 Rises=F Damp=F
 DIIS: error= 1.97D-04 at cycle   8 NSaved=   8.
 NSaved= 8 IEnMin= 8 EnMin= -680.430187569429     IErMin= 8 ErrMin= 1.97D-04
 ErrMax= 1.97D-04  0.00D+00 EMaxC= 1.00D-01 BMatC= 1.26D-05 BMatP= 4.70D-05
 IDIUse=3 WtCom= 9.98D-01 WtEn= 1.97D-03
 Coeff-Com: -0.750D-02 0.146D-01 0.371D-01 0.447D-01-0.828D-01-0.317D+00
 Coeff-Com:  0.300D+00 0.101D+01
 Coeff-En:   0.000D+00 0.000D+00 0.000D+00 0.000D+00 0.000D+00 0.000D+00
 Coeff-En:   0.000D+00 0.100D+01
 Coeff:     -0.748D-02 0.146D-01 0.370D-01 0.446D-01-0.826D-01-0.316D+00
 Coeff:      0.300D+00 0.101D+01
 Gap=     0.274 Goal=   None    Shift=    0.000
 Gap=     0.229 Goal=   None    Shift=    0.000
 RMSDP=2.95D-05 MaxDP=1.58D-03 DE=-1.04D-04 OVMax= 4.61D-03

 Cycle   9  Pass 0  IDiag  1:
 RMSU=  1.02D-05    CP:  9.71D-01  1.40D+00  9.77D-01  9.68D-01  2.14D+00
                    CP:  2.58D+00  1.96D+00  1.42D+00
 E= -680.430209560124     Delta-E=       -0.000021990695 Rises=F Damp=F
 DIIS: error= 9.29D-05 at cycle   9 NSaved=   9.
 NSaved= 9 IEnMin= 9 EnMin= -680.430209560124     IErMin= 9 ErrMin= 9.29D-05
 ErrMax= 9.29D-05  0.00D+00 EMaxC= 1.00D-01 BMatC= 2.88D-06 BMatP= 1.26D-05
 IDIUse=1 WtCom= 1.00D+00 WtEn= 0.00D+00
 Coeff-Com: -0.800D-03 0.120D-02 0.519D-02 0.106D-01 0.231D-01-0.470D-01
 Coeff-Com: -0.138D+00 0.965D-01 0.105D+01
 Coeff:     -0.800D-03 0.120D-02 0.519D-02 0.106D-01 0.231D-01-0.470D-01
 Coeff:     -0.138D+00 0.965D-01 0.105D+01
 Gap=     0.274 Goal=   None    Shift=    0.000
 Gap=     0.229 Goal=   None    Shift=    0.000
 RMSDP=1.33D-05 MaxDP=4.82D-04 DE=-2.20D-05 OVMax= 1.83D-03

 Cycle  10  Pass 0  IDiag  1:
 RMSU=  5.72D-06    CP:  9.70D-01  1.40D+00  9.78D-01  9.72D-01  2.15D+00
                    CP:  2.64D+00  2.11D+00  1.76D+00  1.55D+00
 E= -680.430215823608     Delta-E=       -0.000006263484 Rises=F Damp=F
 DIIS: error= 8.40D-05 at cycle  10 NSaved=  10.
 NSaved=10 IEnMin=10 EnMin= -680.430215823608     IErMin=10 ErrMin= 8.40D-05
 ErrMax= 8.40D-05  0.00D+00 EMaxC= 1.00D-01 BMatC= 1.41D-06 BMatP= 2.88D-06
 IDIUse=1 WtCom= 1.00D+00 WtEn= 0.00D+00
 Coeff-Com:  0.284D-02-0.563D-02-0.140D-01-0.152D-01 0.393D-01 0.122D+00
 Coeff-Com: -0.162D+00-0.379D+00 0.226D+00 0.119D+01
 Coeff:      0.284D-02-0.563D-02-0.140D-01-0.152D-01 0.393D-01 0.122D+00
 Coeff:     -0.162D+00-0.379D+00 0.226D+00 0.119D+01
 Gap=     0.274 Goal=   None    Shift=    0.000
 Gap=     0.230 Goal=   None    Shift=    0.000
 RMSDP=1.24D-05 MaxDP=5.22D-04 DE=-6.26D-06 OVMax= 2.11D-03

 Cycle  11  Pass 0  IDiag  1:
 RMSU=  3.52D-06    CP:  9.70D-01  1.40D+00  9.78D-01  9.74D-01  2.17D+00
                    CP:  2.68D+00  2.22D+00  2.06D+00  2.31D+00  1.75D+00
 E= -680.430219998051     Delta-E=       -0.000004174442 Rises=F Damp=F
 DIIS: error= 5.60D-05 at cycle  11 NSaved=  11.
 NSaved=11 IEnMin=11 EnMin= -680.430219998051     IErMin=11 ErrMin= 5.60D-05
 ErrMax= 5.60D-05  0.00D+00 EMaxC= 1.00D-01 BMatC= 6.73D-07 BMatP= 1.41D-06
 IDIUse=1 WtCom= 1.00D+00 WtEn= 0.00D+00
 Coeff-Com:  0.100D-02-0.179D-02-0.546D-02-0.829D-02-0.126D-02 0.527D-01
 Coeff-Com:  0.156D-01-0.124D+00-0.489D+00 0.424D+00 0.114D+01
 Coeff:      0.100D-02-0.179D-02-0.546D-02-0.829D-02-0.126D-02 0.527D-01
 Coeff:      0.156D-01-0.124D+00-0.489D+00 0.424D+00 0.114D+01
 Gap=     0.274 Goal=   None    Shift=    0.000
 Gap=     0.230 Goal=   None    Shift=    0.000
 RMSDP=1.02D-05 MaxDP=4.17D-04 DE=-4.17D-06 OVMax= 1.78D-03

 Cycle  12  Pass 0  IDiag  1:
 RMSU=  2.27D-06    CP:  9.70D-01  1.40D+00  9.78D-01  9.76D-01  2.17D+00
                    CP:  2.70D+00  2.29D+00  2.28D+00  2.86D+00  2.69D+00
                    CP:  1.74D+00
 E= -680.430222147271     Delta-E=       -0.000002149221 Rises=F Damp=F
 DIIS: error= 4.22D-05 at cycle  12 NSaved=  12.
 NSaved=12 IEnMin=12 EnMin= -680.430222147271     IErMin=12 ErrMin= 4.22D-05
 ErrMax= 4.22D-05  0.00D+00 EMaxC= 1.00D-01 BMatC= 2.23D-07 BMatP= 6.73D-07
 IDIUse=1 WtCom= 1.00D+00 WtEn= 0.00D+00
 Coeff-Com: -0.118D-02 0.235D-02 0.588D-02 0.589D-02-0.179D-01-0.452D-01
 Coeff-Com:  0.649D-01 0.170D+00-0.218D+00-0.321D+00 0.331D-01 0.132D+01
 Coeff:     -0.118D-02 0.235D-02 0.588D-02 0.589D-02-0.179D-01-0.452D-01
 Coeff:      0.649D-01 0.170D+00-0.218D+00-0.321D+00 0.331D-01 0.132D+01
 Gap=     0.274 Goal=   None    Shift=    0.000
 Gap=     0.230 Goal=   None    Shift=    0.000
 RMSDP=6.94D-06 MaxDP=2.89D-04 DE=-2.15D-06 OVMax= 1.43D-03

 Initial convergence to 1.0D-05 achieved.  Increase integral accuracy.
 Cycle  13  Pass 1  IDiag  1:
 E= -680.430240345393     Delta-E=       -0.000018198122 Rises=F Damp=F
 DIIS: error= 1.28D-04 at cycle   1 NSaved=   1.
 NSaved= 1 IEnMin= 1 EnMin= -680.430240345393     IErMin= 1 ErrMin= 1.28D-04
 ErrMax= 1.28D-04  0.00D+00 EMaxC= 1.00D-01 BMatC= 2.93D-06 BMatP= 2.93D-06
 IDIUse=3 WtCom= 9.99D-01 WtEn= 1.28D-03
 Coeff-Com:  0.100D+01
 Coeff-En:   0.100D+01
 Coeff:      0.100D+01
 Gap=     0.274 Goal=   None    Shift=    0.000
 Gap=     0.230 Goal=   None    Shift=    0.000
 RMSDP=6.94D-06 MaxDP=2.89D-04 DE=-1.82D-05 OVMax= 3.08D-04

 Cycle  14  Pass 1  IDiag  1:
 RMSU=  6.68D-05    CP:  1.00D+00
 E= -680.430241238527     Delta-E=       -0.000000893134 Rises=F Damp=F
 DIIS: error= 2.30D-05 at cycle   2 NSaved=   2.
 NSaved= 2 IEnMin= 2 EnMin= -680.430241238527     IErMin= 2 ErrMin= 2.30D-05
 ErrMax= 2.30D-05  0.00D+00 EMaxC= 1.00D-01 BMatC= 1.01D-07 BMatP= 2.93D-06
 IDIUse=1 WtCom= 1.00D+00 WtEn= 0.00D+00
 Coeff-Com: -0.414D-01 0.104D+01
 Coeff:     -0.414D-01 0.104D+01
 Gap=     0.274 Goal=   None    Shift=    0.000
 Gap=     0.230 Goal=   None    Shift=    0.000
 RMSDP=5.10D-06 MaxDP=1.18D-04 DE=-8.93D-07 OVMax= 3.11D-04

 Cycle  15  Pass 1  IDiag  1:
 RMSU=  1.78D-06    CP:  1.00D+00  1.07D+00
 E= -680.430241343172     Delta-E=       -0.000000104645 Rises=F Damp=F
 DIIS: error= 1.60D-05 at cycle   3 NSaved=   3.
 NSaved= 3 IEnMin= 3 EnMin= -680.430241343172     IErMin= 3 ErrMin= 1.60D-05
 ErrMax= 1.60D-05  0.00D+00 EMaxC= 1.00D-01 BMatC= 9.22D-08 BMatP= 1.01D-07
 IDIUse=1 WtCom= 1.00D+00 WtEn= 0.00D+00
 Coeff-Com: -0.415D-01 0.522D+00 0.520D+00
 Coeff:     -0.415D-01 0.522D+00 0.520D+00
 Gap=     0.274 Goal=   None    Shift=    0.000
 Gap=     0.230 Goal=   None    Shift=    0.000
 RMSDP=8.81D-07 MaxDP=2.64D-05 DE=-1.05D-07 OVMax= 1.05D-04

 Cycle  16  Pass 1  IDiag  1:
 RMSU=  8.43D-07    CP:  1.00D+00  1.08D+00  1.05D+00
 E= -680.430241394602     Delta-E=       -0.000000051430 Rises=F Damp=F
 DIIS: error= 1.63D-05 at cycle   4 NSaved=   4.
 NSaved= 4 IEnMin= 4 EnMin= -680.430241394602     IErMin= 3 ErrMin= 1.60D-05
 ErrMax= 1.63D-05  0.00D+00 EMaxC= 1.00D-01 BMatC= 2.15D-08 BMatP= 9.22D-08
 IDIUse=1 WtCom= 1.00D+00 WtEn= 0.00D+00
 Coeff-Com:  0.244D-01-0.442D+00-0.268D+00 0.168D+01
 Coeff:      0.244D-01-0.442D+00-0.268D+00 0.168D+01
 Gap=     0.274 Goal=   None    Shift=    0.000
 Gap=     0.230 Goal=   None    Shift=    0.000
 RMSDP=1.66D-06 MaxDP=6.75D-05 DE=-5.14D-08 OVMax= 3.60D-04

 Cycle  17  Pass 1  IDiag  1:
 RMSU=  6.55D-07    CP:  1.00D+00  1.08D+00  1.69D+00  2.19D+00
 E= -680.430241481392     Delta-E=       -0.000000086790 Rises=F Damp=F
 DIIS: error= 1.08D-05 at cycle   5 NSaved=   5.
 NSaved= 5 IEnMin= 5 EnMin= -680.430241481392     IErMin= 5 ErrMin= 1.08D-05
 ErrMax= 1.08D-05  0.00D+00 EMaxC= 1.00D-01 BMatC= 1.35D-08 BMatP= 2.15D-08
 IDIUse=1 WtCom= 1.00D+00 WtEn= 0.00D+00
 Coeff-Com:  0.309D-01-0.416D+00-0.468D+00 0.422D+00 0.143D+01
 Coeff:      0.309D-01-0.416D+00-0.468D+00 0.422D+00 0.143D+01
 Gap=     0.274 Goal=   None    Shift=    0.000
 Gap=     0.230 Goal=   None    Shift=    0.000
 RMSDP=2.01D-06 MaxDP=7.18D-05 DE=-8.68D-08 OVMax= 4.26D-04

 Cycle  18  Pass 1  IDiag  1:
 RMSU=  7.08D-07    CP:  1.00D+00  1.08D+00  2.39D+00  3.00D+00  2.23D+00
 E= -680.430241546074     Delta-E=       -0.000000064682 Rises=F Damp=F
 DIIS: error= 5.89D-06 at cycle   6 NSaved=   6.
 NSaved= 6 IEnMin= 6 EnMin= -680.430241546074     IErMin= 6 ErrMin= 5.89D-06
 ErrMax= 5.89D-06  0.00D+00 EMaxC= 1.00D-01 BMatC= 3.92D-09 BMatP= 1.35D-08
 IDIUse=1 WtCom= 1.00D+00 WtEn= 0.00D+00
 Coeff-Com: -0.464D-02 0.129D+00-0.207D-01-0.665D+00 0.354D+00 0.121D+01
 Coeff:     -0.464D-02 0.129D+00-0.207D-01-0.665D+00 0.354D+00 0.121D+01
 Gap=     0.274 Goal=   None    Shift=    0.000
 Gap=     0.230 Goal=   None    Shift=    0.000
 RMSDP=1.27D-06 MaxDP=4.88D-05 DE=-6.47D-08 OVMax= 2.84D-04

 Cycle  19  Pass 1  IDiag  1:
 RMSU=  3.17D-07    CP:  1.00D+00  1.08D+00  2.79D+00  3.00D+00  3.00D+00
                    CP:  2.11D+00
 E= -680.430241565743     Delta-E=       -0.000000019669 Rises=F Damp=F
 DIIS: error= 1.99D-06 at cycle   7 NSaved=   7.
 NSaved= 7 IEnMin= 7 EnMin= -680.430241565743     IErMin= 7 ErrMin= 1.99D-06
 ErrMax= 1.99D-06  0.00D+00 EMaxC= 1.00D-01 BMatC= 1.15D-09 BMatP= 3.92D-09
 IDIUse=1 WtCom= 1.00D+00 WtEn= 0.00D+00
 Coeff-Com: -0.831D-02 0.132D+00 0.938D-01-0.289D+00-0.243D+00 0.295D+00
 Coeff-Com:  0.102D+01
 Coeff:     -0.831D-02 0.132D+00 0.938D-01-0.289D+00-0.243D+00 0.295D+00
 Coeff:      0.102D+01
 Gap=     0.274 Goal=   None    Shift=    0.000
 Gap=     0.230 Goal=   None    Shift=    0.000
 RMSDP=5.67D-07 MaxDP=1.94D-05 DE=-1.97D-08 OVMax= 1.22D-04

 Cycle  20  Pass 1  IDiag  1:
 RMSU=  2.40D-07    CP:  1.00D+00  1.08D+00  2.96D+00  3.00D+00  3.00D+00
                    CP:  2.62D+00  1.67D+00
 E= -680.430241569651     Delta-E=       -0.000000003909 Rises=F Damp=F
 DIIS: error= 1.03D-06 at cycle   8 NSaved=   8.
 NSaved= 8 IEnMin= 8 EnMin= -680.430241569651     IErMin= 8 ErrMin= 1.03D-06
 ErrMax= 1.03D-06  0.00D+00 EMaxC= 1.00D-01 BMatC= 3.87D-10 BMatP= 1.15D-09
 IDIUse=1 WtCom= 1.00D+00 WtEn= 0.00D+00
 Coeff-Com:  0.653D-03-0.296D-01 0.183D-01 0.199D+00-0.131D+00-0.417D+00
 Coeff-Com:  0.167D+00 0.119D+01
 Coeff:      0.653D-03-0.296D-01 0.183D-01 0.199D+00-0.131D+00-0.417D+00
 Coeff:      0.167D+00 0.119D+01
 Gap=     0.274 Goal=   None    Shift=    0.000
 Gap=     0.230 Goal=   None    Shift=    0.000
 RMSDP=2.50D-07 MaxDP=9.28D-06 DE=-3.91D-09 OVMax= 5.30D-05

 Cycle  21  Pass 1  IDiag  1:
 RMSU=  1.11D-07    CP:  1.00D+00  1.08D+00  3.00D+00  3.00D+00  3.00D+00
                    CP:  2.79D+00  2.03D+00  1.46D+00
 E= -680.430241570730     Delta-E=       -0.000000001079 Rises=F Damp=F
 DIIS: error= 5.90D-07 at cycle   9 NSaved=   9.
 NSaved= 9 IEnMin= 9 EnMin= -680.430241570730     IErMin= 9 ErrMin= 5.90D-07
 ErrMax= 5.90D-07  0.00D+00 EMaxC= 1.00D-01 BMatC= 1.49D-10 BMatP= 3.87D-10
 IDIUse=1 WtCom= 1.00D+00 WtEn= 0.00D+00
 Coeff-Com:  0.269D-02-0.504D-01-0.192D-01 0.161D+00 0.281D-01-0.246D+00
 Coeff-Com: -0.261D+00 0.434D+00 0.950D+00
 Coeff:      0.269D-02-0.504D-01-0.192D-01 0.161D+00 0.281D-01-0.246D+00
 Coeff:     -0.261D+00 0.434D+00 0.950D+00
 Gap=     0.274 Goal=   None    Shift=    0.000
 Gap=     0.230 Goal=   None    Shift=    0.000
 RMSDP=1.16D-07 MaxDP=3.75D-06 DE=-1.08D-09 OVMax= 2.14D-05

 Cycle  22  Pass 1  IDiag  1:
 RMSU=  4.69D-08    CP:  1.00D+00  1.08D+00  3.00D+00  3.00D+00  3.00D+00
                    CP:  2.85D+00  2.17D+00  1.66D+00  1.66D+00
 E= -680.430241571053     Delta-E=       -0.000000000322 Rises=F Damp=F
 DIIS: error= 3.39D-07 at cycle  10 NSaved=  10.
 NSaved=10 IEnMin=10 EnMin= -680.430241571053     IErMin=10 ErrMin= 3.39D-07
 ErrMax= 3.39D-07  0.00D+00 EMaxC= 1.00D-01 BMatC= 5.27D-11 BMatP= 1.49D-10
 IDIUse=1 WtCom= 1.00D+00 WtEn= 0.00D+00
 Coeff-Com:  0.955D-03-0.101D-01-0.160D-01-0.159D-01 0.607D-01 0.799D-01
 Coeff-Com: -0.172D+00-0.261D+00 0.344D+00 0.988D+00
 Coeff:      0.955D-03-0.101D-01-0.160D-01-0.159D-01 0.607D-01 0.799D-01
 Coeff:     -0.172D+00-0.261D+00 0.344D+00 0.988D+00
 Gap=     0.274 Goal=   None    Shift=    0.000
 Gap=     0.230 Goal=   None    Shift=    0.000
 RMSDP=7.03D-08 MaxDP=2.50D-06 DE=-3.22D-10 OVMax= 1.49D-05

 Cycle  23  Pass 1  IDiag  1:
 RMSU=  2.94D-08    CP:  1.00D+00  1.08D+00  3.00D+00  3.00D+00  3.00D+00
                    CP:  2.88D+00  2.24D+00  1.78D+00  2.06D+00  1.44D+00
 E= -680.430241571171     Delta-E=       -0.000000000119 Rises=F Damp=F
 DIIS: error= 2.37D-07 at cycle  11 NSaved=  11.
 NSaved=11 IEnMin=11 EnMin= -680.430241571171     IErMin=11 ErrMin= 2.37D-07
 ErrMax= 2.37D-07  0.00D+00 EMaxC= 1.00D-01 BMatC= 1.84D-11 BMatP= 5.27D-11
 IDIUse=1 WtCom= 1.00D+00 WtEn= 0.00D+00
 Coeff-Com: -0.679D-03 0.138D-01 0.466D-02-0.489D-01-0.446D-02 0.964D-01
 Coeff-Com:  0.216D-01-0.148D+00-0.233D+00 0.150D+00 0.115D+01
 Coeff:     -0.679D-03 0.138D-01 0.466D-02-0.489D-01-0.446D-02 0.964D-01
 Coeff:      0.216D-01-0.148D+00-0.233D+00 0.150D+00 0.115D+01
 Gap=     0.274 Goal=   None    Shift=    0.000
 Gap=     0.230 Goal=   None    Shift=    0.000
 RMSDP=4.55D-08 MaxDP=1.77D-06 DE=-1.19D-10 OVMax= 1.01D-05

 Cycle  24  Pass 1  IDiag  1:
 RMSU=  1.70D-08    CP:  1.00D+00  1.08D+00  3.00D+00  3.00D+00  3.00D+00
                    CP:  2.89D+00  2.27D+00  1.84D+00  2.29D+00  1.84D+00
                    CP:  1.69D+00
 E= -680.430241571218     Delta-E=       -0.000000000046 Rises=F Damp=F
 DIIS: error= 1.53D-07 at cycle  12 NSaved=  12.
 NSaved=12 IEnMin=12 EnMin= -680.430241571218     IErMin=12 ErrMin= 1.53D-07
 ErrMax= 1.53D-07  0.00D+00 EMaxC= 1.00D-01 BMatC= 1.03D-11 BMatP= 1.84D-11
 IDIUse=1 WtCom= 1.00D+00 WtEn= 0.00D+00
 Coeff-Com: -0.663D-03 0.977D-02 0.826D-02-0.137D-01-0.294D-01 0.158D-01
 Coeff-Com:  0.692D-01 0.650D-01-0.258D+00-0.358D+00 0.521D+00 0.971D+00
 Coeff:     -0.663D-03 0.977D-02 0.826D-02-0.137D-01-0.294D-01 0.158D-01
 Coeff:      0.692D-01 0.650D-01-0.258D+00-0.358D+00 0.521D+00 0.971D+00
 Gap=     0.274 Goal=   None    Shift=    0.000
 Gap=     0.230 Goal=   None    Shift=    0.000
 RMSDP=3.25D-08 MaxDP=1.15D-06 DE=-4.64D-11 OVMax= 7.18D-06

 Cycle  25  Pass 1  IDiag  1:
 RMSU=  8.96D-09    CP:  1.00D+00  1.08D+00  3.00D+00  3.00D+00  3.00D+00
                    CP:  2.89D+00  2.28D+00  1.88D+00  2.41D+00  2.12D+00
                    CP:  2.33D+00  1.70D+00
 E= -680.430241571251     Delta-E=       -0.000000000033 Rises=F Damp=F
 DIIS: error= 1.17D-07 at cycle  13 NSaved=  13.
 NSaved=13 IEnMin=13 EnMin= -680.430241571251     IErMin=13 ErrMin= 1.17D-07
 ErrMax= 1.17D-07  0.00D+00 EMaxC= 1.00D-01 BMatC= 3.69D-12 BMatP= 1.03D-11
 IDIUse=1 WtCom= 1.00D+00 WtEn= 0.00D+00
 Coeff-Com:  0.184D-03-0.446D-02-0.793D-03 0.205D-01-0.527D-02-0.378D-01
 Coeff-Com: -0.108D-01 0.933D-01 0.540D-01-0.101D+00-0.437D+00 0.912D-01
 Coeff-Com:  0.134D+01
 Coeff:      0.184D-03-0.446D-02-0.793D-03 0.205D-01-0.527D-02-0.378D-01
 Coeff:     -0.108D-01 0.933D-01 0.540D-01-0.101D+00-0.437D+00 0.912D-01
 Coeff:      0.134D+01
 Gap=     0.274 Goal=   None    Shift=    0.000
 Gap=     0.230 Goal=   None    Shift=    0.000
 RMSDP=2.86D-08 MaxDP=1.24D-06 DE=-3.30D-11 OVMax= 7.31D-06

 Cycle  26  Pass 1  IDiag  1:
 RMSU=  8.11D-09    CP:  1.00D+00  1.08D+00  3.00D+00  3.00D+00  3.00D+00
                    CP:  2.90D+00  2.29D+00  1.91D+00  2.50D+00  2.35D+00
                    CP:  2.82D+00  2.46D+00  1.86D+00
 E= -680.430241571263     Delta-E=       -0.000000000013 Rises=F Damp=F
 DIIS: error= 6.71D-08 at cycle  14 NSaved=  14.
 NSaved=14 IEnMin=14 EnMin= -680.430241571263     IErMin=14 ErrMin= 6.71D-08
 ErrMax= 6.71D-08  0.00D+00 EMaxC= 1.00D-01 BMatC= 1.67D-12 BMatP= 3.69D-12
 IDIUse=1 WtCom= 1.00D+00 WtEn= 0.00D+00
 Coeff-Com:  0.370D-03-0.600D-02-0.404D-02 0.146D-01 0.961D-02-0.197D-01
 Coeff-Com: -0.360D-01 0.104D-01 0.112D+00 0.134D+00-0.343D+00-0.426D+00
 Coeff-Com:  0.446D+00 0.111D+01
 Coeff:      0.370D-03-0.600D-02-0.404D-02 0.146D-01 0.961D-02-0.197D-01
 Coeff:     -0.360D-01 0.104D-01 0.112D+00 0.134D+00-0.343D+00-0.426D+00
 Coeff:      0.446D+00 0.111D+01
 Gap=     0.274 Goal=   None    Shift=    0.000
 Gap=     0.230 Goal=   None    Shift=    0.000
 RMSDP=1.92D-08 MaxDP=7.98D-07 DE=-1.27D-11 OVMax= 4.60D-06

 Cycle  27  Pass 1  IDiag  1:
 RMSU=  5.33D-09    CP:  1.00D+00  1.08D+00  3.00D+00  3.00D+00  3.00D+00
                    CP:  2.91D+00  2.30D+00  1.92D+00  2.55D+00  2.49D+00
                    CP:  3.00D+00  2.98D+00  2.68D+00  1.62D+00
 E= -680.430241571272     Delta-E=       -0.000000000008 Rises=F Damp=F
 DIIS: error= 4.38D-08 at cycle  15 NSaved=  15.
 NSaved=15 IEnMin=15 EnMin= -680.430241571272     IErMin=15 ErrMin= 4.38D-08
 ErrMax= 4.38D-08  0.00D+00 EMaxC= 1.00D-01 BMatC= 5.52D-13 BMatP= 1.67D-12
 IDIUse=1 WtCom= 1.00D+00 WtEn= 0.00D+00
 Coeff-Com: -0.346D-04 0.127D-02-0.324D-03-0.773D-02 0.400D-02 0.160D-01
 Coeff-Com: -0.172D-02-0.399D-01-0.203D-01 0.777D-01 0.174D+00-0.153D+00
 Coeff-Com: -0.552D+00 0.149D+00 0.135D+01
 Coeff:     -0.346D-04 0.127D-02-0.324D-03-0.773D-02 0.400D-02 0.160D-01
 Coeff:     -0.172D-02-0.399D-01-0.203D-01 0.777D-01 0.174D+00-0.153D+00
 Coeff:     -0.552D+00 0.149D+00 0.135D+01
 Gap=     0.274 Goal=   None    Shift=    0.000
 Gap=     0.230 Goal=   None    Shift=    0.000
 RMSDP=1.48D-08 MaxDP=6.48D-07 DE=-8.41D-12 OVMax= 3.41D-06

 Cycle  28  Pass 1  IDiag  1:
 RMSU=  7.73D-09    CP:  1.00D+00  1.08D+00  3.00D+00  3.00D+00  3.00D+00
                    CP:  2.91D+00  2.31D+00  1.93D+00  2.59D+00  2.60D+00
                    CP:  3.00D+00  3.00D+00  3.00D+00  2.25D+00  2.30D+00
 E= -680.430241571274     Delta-E=       -0.000000000002 Rises=F Damp=F
 DIIS: error= 1.90D-08 at cycle  16 NSaved=  16.
 NSaved=16 IEnMin=16 EnMin= -680.430241571274     IErMin=16 ErrMin= 1.90D-08
 ErrMax= 1.90D-08  0.00D+00 EMaxC= 1.00D-01 BMatC= 1.21D-13 BMatP= 5.52D-13
 IDIUse=1 WtCom= 1.00D+00 WtEn= 0.00D+00
 Coeff-Com: -0.111D-03 0.195D-02 0.104D-02-0.562D-02-0.182D-02 0.869D-02
 Coeff-Com:  0.898D-02-0.826D-02-0.391D-01-0.224D-01 0.142D+00 0.691D-01
 Coeff-Com: -0.214D+00-0.284D+00 0.215D+00 0.113D+01
 Coeff:     -0.111D-03 0.195D-02 0.104D-02-0.562D-02-0.182D-02 0.869D-02
 Coeff:      0.898D-02-0.826D-02-0.391D-01-0.224D-01 0.142D+00 0.691D-01
 Coeff:     -0.214D+00-0.284D+00 0.215D+00 0.113D+01
 Gap=     0.274 Goal=   None    Shift=    0.000
 Gap=     0.230 Goal=   None    Shift=    0.000
 RMSDP=6.03D-09 MaxDP=2.46D-07 DE=-2.05D-12 OVMax= 1.24D-06

 SCF Done:  E(UwB97XD) =  -680.430241571     A.U. after   28 cycles
            NFock= 28  Conv=0.60D-08     -V/T= 2.0068
 <Sx>= 0.0000 <Sy>= 0.0000 <Sz>= 0.5000 <S**2>= 0.8499 S= 0.5488
 <L.S>=  0.00000000000    
 KE= 6.758265500591D+02 PE=-3.302002576612D+03 EE= 1.082837768646D+03
 Annihilation of the first spin contaminant:
 S**2 before annihilation     0.8499,   after     0.7531
 Leave Link  502 at Tue May  6 19:27:33 2025, MaxMem=   524288000 cpu:             372.6 elap:              93.9
 (Enter /usr/license/gaussian16_new/rev_c01/avx2/g16/l601.exe)
 Copying SCF densities to generalized density rwf, IOpCl= 1 IROHF=0.

 **********************************************************************

            Population analysis using the SCF Density.

 **********************************************************************

 Alpha  occ. eigenvalues --  -24.88506 -24.88308 -14.66217 -14.65391 -10.55140
 Alpha  occ. eigenvalues --  -10.55114 -10.53670 -10.53605 -10.51315 -10.48975
 Alpha  occ. eigenvalues --  -10.48160 -10.47883 -10.47001  -7.08655  -1.37204
 Alpha  occ. eigenvalues --   -1.33576  -1.27820  -1.26183  -1.10668  -1.07636
 Alpha  occ. eigenvalues --   -1.06166  -1.02760  -0.96647  -0.89472  -0.87770
 Alpha  occ. eigenvalues --   -0.86652  -0.85896  -0.82840  -0.81003  -0.75306
 Alpha  occ. eigenvalues --   -0.73401  -0.72865  -0.71881  -0.70874  -0.70183
 Alpha  occ. eigenvalues --   -0.69443  -0.68222  -0.67416  -0.67044  -0.66533
 Alpha  occ. eigenvalues --   -0.65954  -0.59219  -0.58792  -0.57650  -0.57478
 Alpha  occ. eigenvalues --   -0.56526  -0.52545  -0.51313  -0.49705
 Alpha virt. eigenvalues --   -0.22349  -0.09700  -0.06867  -0.04258  -0.00116
 Alpha virt. eigenvalues --    0.03075   0.05902   0.06243   0.07481   0.08417
 Alpha virt. eigenvalues --    0.08873   0.09261   0.09673   0.10326   0.11370
 Alpha virt. eigenvalues --    0.13813   0.14250   0.15925   0.16855   0.17291
 Alpha virt. eigenvalues --    0.21021   0.21480   0.24269   0.25045   0.26339
 Alpha virt. eigenvalues --    0.29435   0.30020   0.31485   0.32908   0.33832
 Alpha virt. eigenvalues --    0.34608   0.34663   0.35329   0.35843   0.36236
 Alpha virt. eigenvalues --    0.38542   0.39324   0.40067   0.40772   0.42660
 Alpha virt. eigenvalues --    0.43345   0.43917   0.45201   0.45614   0.49465
 Alpha virt. eigenvalues --    0.49686   0.51985   0.52466   0.57243   0.58808
 Alpha virt. eigenvalues --    0.60318   0.61323   0.61412   0.62619   0.63307
 Alpha virt. eigenvalues --    0.64096   0.65228   0.65539   0.67171   0.67500
 Alpha virt. eigenvalues --    0.69375   0.69905   0.70734   0.72266   0.74475
 Alpha virt. eigenvalues --    0.80669   0.80734   0.81490   0.87282   0.89503
 Alpha virt. eigenvalues --    0.91094   0.94033   0.96842   0.99477   1.00876
 Alpha virt. eigenvalues --    1.05897   1.06930   1.07753   1.09090   1.11171
 Alpha virt. eigenvalues --    1.12059   1.13384   1.15588   1.16462   1.16573
 Alpha virt. eigenvalues --    1.18239   1.19097   1.22380   1.23852   1.25584
 Alpha virt. eigenvalues --    1.27969   1.28250   1.30833   1.32280   1.35061
 Alpha virt. eigenvalues --    1.42076   1.42323   1.46571   1.47961   1.49809
 Alpha virt. eigenvalues --    1.54147   1.55177   1.56611   1.58969   1.60148
 Alpha virt. eigenvalues --    1.60907   1.61318   1.63903   1.64483   1.64683
 Alpha virt. eigenvalues --    1.68167   1.69081   1.71163   1.72731   1.76543
 Alpha virt. eigenvalues --    1.77446   1.78826   1.81550   1.82307   1.85237
 Alpha virt. eigenvalues --    1.87577   1.89081   1.90106   1.91031   1.92637
 Alpha virt. eigenvalues --    1.93202   1.95091   1.97207   1.99912   2.00809
 Alpha virt. eigenvalues --    2.04686   2.06098   2.07761   2.12118   2.12559
 Alpha virt. eigenvalues --    2.17018   2.19218   2.19581   2.20714   2.23168
 Alpha virt. eigenvalues --    2.25183   2.26368   2.28416   2.34485   2.40023
 Alpha virt. eigenvalues --    2.47672   2.49802   2.51660   2.52707   2.56634
 Alpha virt. eigenvalues --    2.58022   2.60915   2.62726   2.64138   2.65102
 Alpha virt. eigenvalues --    2.68997   2.71569   2.83903   2.85046   2.90845
 Alpha virt. eigenvalues --    2.93418   2.97016   2.97697   3.00271   3.04316
 Alpha virt. eigenvalues --    3.07459   3.07931   3.10918   3.11394   3.14185
 Alpha virt. eigenvalues --    3.22663   3.24967   3.31089   3.34991   3.41996
 Alpha virt. eigenvalues --    3.45705   3.49304   3.59435   3.66292   3.72192
 Alpha virt. eigenvalues --    3.72319   3.74194
  Beta  occ. eigenvalues --  -24.88513 -24.88318 -14.66386 -14.65566 -10.54663
  Beta  occ. eigenvalues --  -10.54619 -10.53329 -10.53236 -10.51680 -10.49016
  Beta  occ. eigenvalues --  -10.48165 -10.47762 -10.46908  -7.08649  -1.37224
  Beta  occ. eigenvalues --   -1.33600  -1.27403  -1.25698  -1.10400  -1.07447
  Beta  occ. eigenvalues --   -1.05953  -1.01213  -0.96150  -0.89098  -0.87184
  Beta  occ. eigenvalues --   -0.86492  -0.85541  -0.82644  -0.80746  -0.75178
  Beta  occ. eigenvalues --   -0.72812  -0.72147  -0.71748  -0.70764  -0.69728
  Beta  occ. eigenvalues --   -0.68059  -0.67605  -0.67023  -0.66602  -0.66263
  Beta  occ. eigenvalues --   -0.65716  -0.59271  -0.58582  -0.57514  -0.56795
  Beta  occ. eigenvalues --   -0.54984  -0.52586  -0.51382
  Beta virt. eigenvalues --   -0.28427  -0.20549  -0.07036  -0.04772  -0.02249
  Beta virt. eigenvalues --    0.01344   0.03096   0.05993   0.06258   0.07660
  Beta virt. eigenvalues --    0.08610   0.09301   0.09500   0.09782   0.10482
  Beta virt. eigenvalues --    0.11690   0.13946   0.14573   0.15717   0.16859
  Beta virt. eigenvalues --    0.17755   0.21105   0.21617   0.24427   0.25177
  Beta virt. eigenvalues --    0.26784   0.29642   0.30199   0.31491   0.33364
  Beta virt. eigenvalues --    0.34138   0.34730   0.35131   0.35682   0.36130
  Beta virt. eigenvalues --    0.36559   0.38850   0.39573   0.40334   0.40966
  Beta virt. eigenvalues --    0.42982   0.43820   0.44352   0.45389   0.46402
  Beta virt. eigenvalues --    0.50032   0.50431   0.52517   0.53277   0.57507
  Beta virt. eigenvalues --    0.59620   0.60738   0.61473   0.61751   0.62821
  Beta virt. eigenvalues --    0.63464   0.64287   0.65387   0.65828   0.67336
  Beta virt. eigenvalues --    0.67645   0.69552   0.69998   0.70752   0.72559
  Beta virt. eigenvalues --    0.74710   0.80506   0.80788   0.81516   0.87124
  Beta virt. eigenvalues --    0.89590   0.91181   0.94174   0.96747   0.99754
  Beta virt. eigenvalues --    1.00929   1.06107   1.07289   1.07986   1.09416
  Beta virt. eigenvalues --    1.11405   1.12270   1.13536   1.16226   1.16769
  Beta virt. eigenvalues --    1.17213   1.18802   1.19490   1.22642   1.24471
  Beta virt. eigenvalues --    1.25955   1.28296   1.28496   1.30968   1.32524
  Beta virt. eigenvalues --    1.35135   1.42137   1.42403   1.46549   1.48066
  Beta virt. eigenvalues --    1.49906   1.54423   1.55693   1.57037   1.59433
  Beta virt. eigenvalues --    1.60384   1.61173   1.61508   1.64171   1.64863
  Beta virt. eigenvalues --    1.65221   1.68442   1.69545   1.71707   1.73266
  Beta virt. eigenvalues --    1.76728   1.77939   1.79429   1.81704   1.82662
  Beta virt. eigenvalues --    1.85573   1.87940   1.89897   1.90722   1.91590
  Beta virt. eigenvalues --    1.93062   1.93677   1.95685   1.97970   1.99797
  Beta virt. eigenvalues --    2.01397   2.05201   2.07106   2.07627   2.12574
  Beta virt. eigenvalues --    2.13281   2.17523   2.19844   2.19961   2.21303
  Beta virt. eigenvalues --    2.23739   2.25784   2.26737   2.28941   2.34763
  Beta virt. eigenvalues --    2.40372   2.47979   2.49959   2.51736   2.53253
  Beta virt. eigenvalues --    2.57320   2.58712   2.61427   2.63094   2.64605
  Beta virt. eigenvalues --    2.65368   2.69150   2.71700   2.84076   2.85130
  Beta virt. eigenvalues --    2.91012   2.93552   2.97149   2.97816   3.00414
  Beta virt. eigenvalues --    3.04472   3.07451   3.07923   3.10925   3.11433
  Beta virt. eigenvalues --    3.14159   3.22712   3.25139   3.31238   3.35082
  Beta virt. eigenvalues --    3.41973   3.45819   3.49286   3.59456   3.66522
  Beta virt. eigenvalues --    3.72184   3.72297   3.74447
          Condensed to atoms (all electrons):
               1          2          3          4          5          6
     1  N    6.449133  -0.040056   0.438993  -0.045447  -0.103421   0.387958
     2  N   -0.040056   6.426484   0.000137   0.000035  -0.000703  -0.009207
     3  C    0.438993   0.000137   4.674583   0.251483   0.048572  -0.138154
     4  C   -0.045447   0.000035   0.251483   4.959659   0.336523   0.041267
     5  C   -0.103421  -0.000703   0.048572   0.336523   4.988404   0.244733
     6  C    0.387958  -0.009207  -0.138154   0.041267   0.244733   5.141575
     7  C   -0.058455  -0.051443   0.005511   0.019676  -0.103103   0.305803
     8  C   -0.013934   0.386114   0.001309  -0.001633   0.015586   0.034364
     9  C   -0.000693  -0.106868   0.000037  -0.000004   0.000113   0.012229
    10  C    0.000041  -0.039585  -0.000003   0.000000  -0.000002  -0.001214
    11  C    0.000115   0.452585   0.000010  -0.000003   0.000035   0.001067
    12  B    0.268112   0.259133  -0.009730   0.000126  -0.000745  -0.049603
    13  F   -0.033337  -0.032256  -0.002014  -0.000164  -0.000025  -0.002497
    14  F   -0.031455  -0.031201   0.001486   0.000261  -0.000087  -0.002386
    15  H    0.006517   0.005562  -0.000593   0.000849  -0.022700  -0.019511
    16  H    0.000201  -0.029731   0.000004  -0.000000  -0.000001   0.000053
    17  H    0.004472  -0.000012   0.013396  -0.062172   0.495477  -0.048351
    18  H    0.004814   0.000003  -0.068085   0.494112  -0.061503   0.015370
    19  H    0.000002   0.005098   0.000000   0.000000  -0.000000   0.000004
    20  H   -0.027213   0.000179   0.458378  -0.063475   0.011876   0.002224
    21  H   -0.000012   0.005479  -0.000000   0.000000  -0.000000   0.000033
               7          8          9         10         11         12
     1  N   -0.058455  -0.013934  -0.000693   0.000041   0.000115   0.268112
     2  N   -0.051443   0.386114  -0.106868  -0.039585   0.452585   0.259133
     3  C    0.005511   0.001309   0.000037  -0.000003   0.000010  -0.009730
     4  C    0.019676  -0.001633  -0.000004   0.000000  -0.000003   0.000126
     5  C   -0.103103   0.015586   0.000113  -0.000002   0.000035  -0.000745
     6  C    0.305803   0.034364   0.012229  -0.001214   0.001067  -0.049603
     7  C    5.039605   0.258214  -0.111858   0.020255   0.003521   0.000578
     8  C    0.258214   5.156548   0.295128   0.034595  -0.132059  -0.049384
     9  C   -0.111858   0.295128   5.058571   0.321580   0.036519  -0.000535
    10  C    0.020255   0.034595   0.321580   4.922652   0.285422  -0.000104
    11  C    0.003521  -0.132059   0.036519   0.285422   4.538992  -0.009749
    12  B    0.000578  -0.049384  -0.000535  -0.000104  -0.009749   3.401044
    13  F    0.001133  -0.002420  -0.000000  -0.000234  -0.001567   0.477216
    14  F    0.001300  -0.002273  -0.000097   0.000258   0.001194   0.455945
    15  H    0.467479  -0.059498  -0.017438   0.000498  -0.000397   0.002240
    16  H   -0.000682  -0.000745   0.018843  -0.075781   0.469248   0.000095
    17  H   -0.013192   0.000009  -0.000000   0.000000  -0.000000   0.000333
    18  H   -0.000454   0.000002  -0.000000   0.000000   0.000000   0.000222
    19  H   -0.000398   0.014386  -0.071268   0.497798  -0.059225   0.000238
    20  H   -0.000373   0.000026  -0.000001   0.000000   0.000004   0.000483
    21  H   -0.015041  -0.039289   0.466698  -0.059455   0.010660   0.000336
              13         14         15         16         17         18
     1  N   -0.033337  -0.031455   0.006517   0.000201   0.004472   0.004814
     2  N   -0.032256  -0.031201   0.005562  -0.029731  -0.000012   0.000003
     3  C   -0.002014   0.001486  -0.000593   0.000004   0.013396  -0.068085
     4  C   -0.000164   0.000261   0.000849  -0.000000  -0.062172   0.494112
     5  C   -0.000025  -0.000087  -0.022700  -0.000001   0.495477  -0.061503
     6  C   -0.002497  -0.002386  -0.019511   0.000053  -0.048351   0.015370
     7  C    0.001133   0.001300   0.467479  -0.000682  -0.013192  -0.000454
     8  C   -0.002420  -0.002273  -0.059498  -0.000745   0.000009   0.000002
     9  C   -0.000000  -0.000097  -0.017438   0.018843  -0.000000  -0.000000
    10  C   -0.000234   0.000258   0.000498  -0.075781   0.000000   0.000000
    11  C   -0.001567   0.001194  -0.000397   0.469248  -0.000000   0.000000
    12  B    0.477216   0.455945   0.002240   0.000095   0.000333   0.000222
    13  F    8.817171  -0.025919  -0.000000  -0.000167   0.000001   0.000001
    14  F   -0.025919   8.839330   0.000005   0.001512   0.000001   0.000001
    15  H   -0.000000   0.000005   0.681388   0.000004   0.001324   0.000017
    16  H   -0.000167   0.001512   0.000004   0.672554  -0.000000  -0.000000
    17  H    0.000001   0.000001   0.001324  -0.000000   0.596820  -0.008480
    18  H    0.000001   0.000001   0.000017  -0.000000  -0.008480   0.625928
    19  H    0.000001   0.000001   0.000005  -0.008860  -0.000000  -0.000000
    20  H    0.000359   0.000668   0.000006   0.000001  -0.000172  -0.005431
    21  H    0.000001   0.000001   0.002133  -0.000236  -0.000001  -0.000000
              19         20         21
     1  N    0.000002  -0.027213  -0.000012
     2  N    0.005098   0.000179   0.005479
     3  C    0.000000   0.458378  -0.000000
     4  C    0.000000  -0.063475   0.000000
     5  C   -0.000000   0.011876  -0.000000
     6  C    0.000004   0.002224   0.000033
     7  C   -0.000398  -0.000373  -0.015041
     8  C    0.014386   0.000026  -0.039289
     9  C   -0.071268  -0.000001   0.466698
    10  C    0.497798   0.000000  -0.059455
    11  C   -0.059225   0.000004   0.010660
    12  B    0.000238   0.000483   0.000336
    13  F    0.000001   0.000359   0.000001
    14  F    0.000001   0.000668   0.000001
    15  H    0.000005   0.000006   0.002133
    16  H   -0.008860   0.000001  -0.000236
    17  H   -0.000000  -0.000172  -0.000001
    18  H   -0.000000  -0.005431  -0.000000
    19  H    0.630595  -0.000000  -0.005792
    20  H   -0.000000   0.581732   0.000000
    21  H   -0.005792   0.000000   0.607934
          Atomic-Atomic Spin Densities.
               1          2          3          4          5          6
     1  N   -0.106400   0.000292   0.003299  -0.002349  -0.002631  -0.001197
     2  N    0.000292  -0.104171   0.000055  -0.000002  -0.000023  -0.000414
     3  C    0.003299   0.000055   0.312638   0.033831  -0.009849  -0.028896
     4  C   -0.002349  -0.000002   0.033831   0.087792  -0.025333  -0.015595
     5  C   -0.002631  -0.000023  -0.009849  -0.025333  -0.005560   0.030558
     6  C   -0.001197  -0.000414  -0.028896  -0.015595   0.030558   0.449362
     7  C    0.003889   0.003984  -0.000097  -0.000164   0.004463   0.002778
     8  C   -0.000222   0.003811   0.000367   0.000039  -0.000429  -0.018388
     9  C   -0.000019  -0.001854   0.000002   0.000001  -0.000003  -0.000377
    10  C   -0.000004  -0.003179  -0.000000  -0.000000   0.000001   0.000052
    11  C    0.000042   0.000260  -0.000020  -0.000000   0.000002   0.000360
    12  B    0.000714   0.000543  -0.000660  -0.000013  -0.000100  -0.000969
    13  F    0.000642   0.000691  -0.000198  -0.000000   0.000004   0.000079
    14  F    0.000464   0.000428  -0.000243   0.000003   0.000000   0.000051
    15  H    0.000123   0.000098  -0.000021   0.000040  -0.000166   0.001325
    16  H    0.000001  -0.000245  -0.000000   0.000000  -0.000000  -0.000004
    17  H   -0.000032   0.000000  -0.000002   0.000003   0.000722  -0.000036
    18  H   -0.000042   0.000000  -0.000350   0.002028  -0.000150   0.000044
    19  H    0.000000  -0.000057  -0.000000   0.000000  -0.000000  -0.000001
    20  H   -0.000178   0.000001   0.003492   0.000405  -0.000269   0.000096
    21  H    0.000000  -0.000016  -0.000000   0.000000  -0.000000  -0.000007
               7          8          9         10         11         12
     1  N    0.003889  -0.000222  -0.000019  -0.000004   0.000042   0.000714
     2  N    0.003984   0.003811  -0.001854  -0.003179   0.000260   0.000543
     3  C   -0.000097   0.000367   0.000002  -0.000000  -0.000020  -0.000660
     4  C   -0.000164   0.000039   0.000001  -0.000000  -0.000000  -0.000013
     5  C    0.004463  -0.000429  -0.000003   0.000001   0.000002  -0.000100
     6  C    0.002778  -0.018388  -0.000377   0.000052   0.000360  -0.000969
     7  C   -0.354532  -0.000882   0.005043  -0.000236   0.000036   0.000274
     8  C   -0.000882   0.434007   0.027297  -0.016201  -0.027669  -0.000735
     9  C    0.005043   0.027297  -0.038598  -0.023920  -0.009463  -0.000076
    10  C   -0.000236  -0.016201  -0.023920   0.117963   0.034620  -0.000048
    11  C    0.000036  -0.027669  -0.009463   0.034620   0.287806  -0.000653
    12  B    0.000274  -0.000735  -0.000076  -0.000048  -0.000653   0.003720
    13  F   -0.000034   0.000019   0.000002   0.000002  -0.000198  -0.000110
    14  F   -0.000026   0.000039   0.000001   0.000001  -0.000178   0.000037
    15  H   -0.005577   0.000355  -0.000093   0.000029  -0.000013   0.000050
    16  H    0.000057   0.000107  -0.000382   0.000327   0.005354  -0.000105
    17  H    0.000094  -0.000008  -0.000000   0.000000   0.000000   0.000000
    18  H    0.000017  -0.000001  -0.000000   0.000000  -0.000000  -0.000004
    19  H    0.000017   0.000032  -0.000032   0.002300  -0.000422  -0.000005
    20  H    0.000048  -0.000004  -0.000000   0.000000  -0.000000  -0.000125
    21  H    0.000119  -0.000232   0.000547   0.000158   0.000006  -0.000000
              13         14         15         16         17         18
     1  N    0.000642   0.000464   0.000123   0.000001  -0.000032  -0.000042
     2  N    0.000691   0.000428   0.000098  -0.000245   0.000000   0.000000
     3  C   -0.000198  -0.000243  -0.000021  -0.000000  -0.000002  -0.000350
     4  C   -0.000000   0.000003   0.000040   0.000000   0.000003   0.002028
     5  C    0.000004   0.000000  -0.000166  -0.000000   0.000722  -0.000150
     6  C    0.000079   0.000051   0.001325  -0.000004  -0.000036   0.000044
     7  C   -0.000034  -0.000026  -0.005577   0.000057   0.000094   0.000017
     8  C    0.000019   0.000039   0.000355   0.000107  -0.000008  -0.000001
     9  C    0.000002   0.000001  -0.000093  -0.000382  -0.000000  -0.000000
    10  C    0.000002   0.000001   0.000029   0.000327   0.000000   0.000000
    11  C   -0.000198  -0.000178  -0.000013   0.005354   0.000000  -0.000000
    12  B   -0.000110   0.000037   0.000050  -0.000105   0.000000  -0.000004
    13  F   -0.003725   0.000017  -0.000000  -0.000002   0.000000  -0.000000
    14  F    0.000017  -0.002600   0.000000   0.000006  -0.000000   0.000000
    15  H   -0.000000   0.000000   0.013810  -0.000000   0.000018   0.000001
    16  H   -0.000002   0.000006  -0.000000  -0.013805   0.000000  -0.000000
    17  H    0.000000  -0.000000   0.000018   0.000000  -0.001548   0.000115
    18  H   -0.000000   0.000000   0.000001  -0.000000   0.000115  -0.005260
    19  H    0.000000   0.000000   0.000001   0.000109  -0.000000  -0.000000
    20  H   -0.000003   0.000011  -0.000000  -0.000000   0.000004   0.000045
    21  H    0.000000  -0.000000   0.000033   0.000005  -0.000000   0.000000
              19         20         21
     1  N    0.000000  -0.000178   0.000000
     2  N   -0.000057   0.000001  -0.000016
     3  C   -0.000000   0.003492  -0.000000
     4  C    0.000000   0.000405   0.000000
     5  C   -0.000000  -0.000269  -0.000000
     6  C   -0.000001   0.000096  -0.000007
     7  C    0.000017   0.000048   0.000119
     8  C    0.000032  -0.000004  -0.000232
     9  C   -0.000032  -0.000000   0.000547
    10  C    0.002300   0.000000   0.000158
    11  C   -0.000422  -0.000000   0.000006
    12  B   -0.000005  -0.000125  -0.000000
    13  F    0.000000  -0.000003   0.000000
    14  F    0.000000   0.000011  -0.000000
    15  H    0.000001  -0.000000   0.000033
    16  H    0.000109  -0.000000   0.000005
    17  H   -0.000000   0.000004  -0.000000
    18  H   -0.000000   0.000045   0.000000
    19  H   -0.006499  -0.000000   0.000090
    20  H   -0.000000  -0.014429   0.000000
    21  H    0.000090   0.000000  -0.000538
 Mulliken charges and spin densities:
               1          2
     1  N   -0.206336  -0.103606
     2  N   -0.199748  -0.099797
     3  C    0.324683   0.313348
     4  C    0.068908   0.080684
     5  C    0.150971  -0.008764
     6  C    0.084245   0.418821
     7  C    0.231923  -0.340730
     8  C    0.104953   0.401301
     9  C    0.099044  -0.041925
    10  C    0.093280   0.111865
    11  C    0.403630   0.289869
    12  B    0.253748   0.001736
    13  F   -0.195282  -0.002814
    14  F   -0.208545  -0.001989
    15  H   -0.047889   0.010012
    16  H   -0.046312  -0.008578
    17  H    0.020547  -0.000670
    18  H    0.003483  -0.003556
    19  H   -0.002584  -0.004466
    20  H    0.040729  -0.010907
    21  H    0.026551   0.000166
 Sum of Mulliken charges =   1.00000   1.00000
 Mulliken charges and spin densities with hydrogens summed into heavy atoms:
               1          2
     1  N   -0.206336  -0.103606
     2  N   -0.199748  -0.099797
     3  C    0.365412   0.302441
     4  C    0.072391   0.077128
     5  C    0.171519  -0.009434
     6  C    0.084245   0.418821
     7  C    0.184035  -0.330717
     8  C    0.104953   0.401301
     9  C    0.125595  -0.041759
    10  C    0.090696   0.107399
    11  C    0.357318   0.281292
    12  B    0.253748   0.001736
    13  F   -0.195282  -0.002814
    14  F   -0.208545  -0.001989
 Electronic spatial extent (au):  <R**2>=          46451.3485
 Charge=              1.0000 electrons
 Dipole moment (field-independent basis, Debye):
    X=            -23.9069    Y=             -3.0840    Z=             43.5743  Tot=             49.7973
 Quadrupole moment (field-independent basis, Debye-Ang):
   XX=             48.9915   YY=            -76.0147   ZZ=            365.5494
   XY=             20.6297   XZ=           -203.4153   YZ=            -20.1558
 Traceless Quadrupole moment (field-independent basis, Debye-Ang):
   XX=            -63.8506   YY=           -188.8568   ZZ=            252.7074
   XY=             20.6297   XZ=           -203.4153   YZ=            -20.1558
 Octapole moment (field-independent basis, Debye-Ang**2):
  XXX=            667.7187  YYY=            384.3584  ZZZ=           2750.2735  XYY=            443.6309
  XXY=            -16.6387  XXZ=            256.1344  XZZ=          -1539.0106  YZZ=            -52.5748
  YYZ=           -739.0321  XYZ=            120.0043
 Hexadecapole moment (field-independent basis, Debye-Ang**3):
 XXXX=         -12772.2007 YYYY=          -1723.1528 ZZZZ=          15599.1670 XXXY=          -1405.2248
 XXXZ=           7886.4293 YYYX=          -2445.6728 YYYZ=           3612.7323 ZZZX=          -9409.2671
 ZZZY=           1261.2180 XXYY=          -2945.6191 XXZZ=           -871.6023 YYZZ=          -7622.5776
 XXYZ=            431.2480 YYXZ=           4322.0591 ZZXY=            118.5746
 N-N= 8.629080163359D+02 E-N=-3.302002577887D+03  KE= 6.758265500591D+02
                          Isotropic Fermi Contact Couplings
        Atom                 a.u.       MegaHertz       Gauss      10(-4) cm-1
     1  N(14)             -0.04544     -14.68193      -5.23888      -4.89736
     2  N(14)             -0.04456     -14.39693      -5.13718      -4.80230
     3  C(13)              0.05270      59.24175      21.13893      19.76092
     4  C(13)              0.00240       2.70061       0.96365       0.90083
     5  C(13)             -0.01307     -14.69332      -5.24294      -4.90116
     6  C(13)              0.07912      88.94593      31.73812      29.66917
     7  C(13)             -0.06853     -77.04414     -27.49126     -25.69916
     8  C(13)              0.07659      86.09742      30.72170      28.71901
     9  C(13)             -0.01762     -19.81016      -7.06876      -6.60796
    10  C(13)              0.00767       8.62589       3.07793       2.87729
    11  C(13)              0.04588      51.58224      18.40583      17.20598
    12  B(11)              0.00268       3.84643       1.37250       1.28303
    13  F(19)             -0.00192      -8.09453      -2.88833      -2.70005
    14  F(19)             -0.00106      -4.46266      -1.59239      -1.48858
    15  H(1)               0.00356      15.92488       5.68239       5.31197
    16  H(1)              -0.00397     -17.72543      -6.32487      -5.91257
    17  H(1)              -0.00046      -2.07811      -0.74152      -0.69318
    18  H(1)              -0.00143      -6.40229      -2.28450      -2.13557
    19  H(1)              -0.00175      -7.82319      -2.79151      -2.60953
    20  H(1)              -0.00454     -20.31354      -7.24838      -6.77587
    21  H(1)              -0.00005      -0.22254      -0.07941      -0.07423
 --------------------------------------------------------
       Center         ----  Spin Dipole Couplings  ----
                      3XX-RR        3YY-RR        3ZZ-RR
 --------------------------------------------------------
     1   Atom       -0.012585     -0.070594      0.083179
     2   Atom       -0.000737     -0.080788      0.081524
     3   Atom        0.065184      0.120088     -0.185271
     4   Atom       -0.002678      0.056756     -0.054078
     5   Atom        0.000520      0.015712     -0.016232
     6   Atom        0.016888      0.208812     -0.225700
     7   Atom       -0.028645     -0.137045      0.165690
     8   Atom       -0.004860      0.214244     -0.209384
     9   Atom       -0.000074     -0.005333      0.005407
    10   Atom       -0.008614      0.069023     -0.060409
    11   Atom       -0.016306      0.184593     -0.168286
    12   Atom       -0.000979     -0.002207      0.003186
    13   Atom        0.002067     -0.010885      0.008818
    14   Atom       -0.005904     -0.003456      0.009360
    15   Atom       -0.011592     -0.014170      0.025762
    16   Atom        0.020060      0.011048     -0.031108
    17   Atom        0.003760      0.000553     -0.004313
    18   Atom       -0.003922     -0.002618      0.006539
    19   Atom       -0.009593     -0.005927      0.015520
    20   Atom        0.006322      0.008386     -0.014708
    21   Atom       -0.002390     -0.002268      0.004659
 --------------------------------------------------------
                        XY            XZ            YZ
 --------------------------------------------------------
     1   Atom        0.112907      0.002545      0.007565
     2   Atom        0.102790      0.015766     -0.017185
     3   Atom       -0.270932     -0.005831      0.003994
     4   Atom       -0.073559      0.007056     -0.001019
     5   Atom       -0.015617      0.005677     -0.002583
     6   Atom       -0.324309      0.009496     -0.005873
     7   Atom        0.222809      0.018719     -0.010846
     8   Atom       -0.304644     -0.026816      0.034047
     9   Atom        0.007044     -0.001676     -0.001792
    10   Atom       -0.093156     -0.011295      0.013438
    11   Atom       -0.234254     -0.026870      0.035129
    12   Atom        0.002098      0.000999      0.000573
    13   Atom       -0.010827      0.006158      0.008577
    14   Atom       -0.009013      0.006712      0.005381
    15   Atom       -0.003432      0.009790      0.006411
    16   Atom        0.012766     -0.005695     -0.000289
    17   Atom        0.005822      0.004445      0.003035
    18   Atom        0.000191      0.009724      0.008090
    19   Atom       -0.005386      0.003780      0.000407
    20   Atom        0.008391     -0.018139     -0.017668
    21   Atom        0.001390     -0.004204     -0.003855
 --------------------------------------------------------


 ---------------------------------------------------------------------------------
              Anisotropic Spin Dipole Couplings in Principal Axis System
 ---------------------------------------------------------------------------------

       Atom             a.u.   MegaHertz   Gauss  10(-4) cm-1        Axes

              Baa    -0.1582    -6.103    -2.178    -2.036 -0.6123  0.7904 -0.0183
     1 N(14)  Bbb     0.0713     2.750     0.981     0.917  0.6965  0.5284 -0.4854
              Bcc     0.0870     3.354     1.197     1.119  0.3740  0.3100  0.8741
 
              Baa    -0.1533    -5.914    -2.110    -1.973 -0.5629  0.8207  0.0978
     2 N(14)  Bbb     0.0688     2.654     0.947     0.885  0.7935  0.5697 -0.2140
              Bcc     0.0845     3.260     1.163     1.087  0.2314  0.0428  0.9719
 
              Baa    -0.1858   -24.933    -8.897    -8.317  0.2011  0.1655  0.9655
     3 C(13)  Bbb    -0.1792   -24.052    -8.582    -8.023  0.7141  0.6499 -0.2601
              Bcc     0.3650    48.985    17.479    16.340 -0.6705  0.7418  0.0125
 
              Baa    -0.0586    -7.867    -2.807    -2.624 -0.5435 -0.3397  0.7676
     4 C(13)  Bbb    -0.0479    -6.427    -2.293    -2.144  0.6255  0.4459  0.6402
              Bcc     0.1065    14.293     5.100     4.768 -0.5598  0.8281 -0.0299
 
              Baa    -0.0182    -2.439    -0.870    -0.814 -0.3617 -0.0960  0.9273
     5 C(13)  Bbb    -0.0079    -1.066    -0.381    -0.356  0.7625  0.5419  0.3535
              Bcc     0.0261     3.506     1.251     1.169 -0.5365  0.8349 -0.1228
 
              Baa    -0.2297   -30.825   -10.999   -10.282 -0.5556 -0.4011  0.7283
     6 C(13)  Bbb    -0.2215   -29.724   -10.606    -9.915  0.5772  0.4444  0.6851
              Bcc     0.4512    60.549    21.605    20.197 -0.5984  0.8010 -0.0153
 
              Baa    -0.3130   -42.001   -14.987   -14.010 -0.6179  0.7851  0.0420
     7 C(13)  Bbb     0.1437    19.278     6.879     6.430  0.7331  0.5946 -0.3301
              Bcc     0.1693    22.723     8.108     7.580  0.2841  0.1732  0.9430
 
              Baa    -0.2198   -29.493   -10.524    -9.838  0.7920  0.5324  0.2988
     8 C(13)  Bbb    -0.2116   -28.391   -10.130    -9.470 -0.2080 -0.2249  0.9519
              Bcc     0.4314    57.884    20.654    19.308 -0.5740  0.8160  0.0674
 
              Baa    -0.0102    -1.374    -0.490    -0.458 -0.5655  0.8241  0.0338
     9 C(13)  Bbb     0.0027     0.363     0.129     0.121  0.6314  0.4062  0.6606
              Bcc     0.0075     1.011     0.361     0.337 -0.5306 -0.3949  0.7500
 
              Baa    -0.0711    -9.544    -3.406    -3.184  0.8239  0.5278  0.2065
    10 C(13)  Bbb    -0.0616    -8.263    -2.948    -2.756 -0.1235 -0.1883  0.9743
              Bcc     0.1327    17.807     6.354     5.940 -0.5532  0.8282  0.0900
 
              Baa    -0.1746   -23.427    -8.359    -7.814  0.5600  0.2893  0.7764
    11 C(13)  Bbb    -0.1683   -22.578    -8.057    -7.531 -0.6207 -0.4742  0.6244
              Bcc     0.3428    46.005    16.416    15.346 -0.5488  0.8315  0.0860
 
              Baa    -0.0038    -0.647    -0.231    -0.216 -0.6039  0.7968  0.0211
    12 B(11)  Bbb     0.0002     0.028     0.010     0.009  0.7411  0.5711 -0.3530
              Bcc     0.0036     0.620     0.221     0.207  0.2933  0.1976  0.9354
 
              Baa    -0.0208   -10.425    -3.720    -3.477  0.4761  0.8131 -0.3349
    13 F(19)  Bbb     0.0080     4.001     1.428     1.335  0.8042 -0.5567 -0.2083
              Bcc     0.0128     6.424     2.292     2.143  0.3558  0.1702  0.9189
 
              Baa    -0.0166    -8.347    -2.979    -2.784  0.7186  0.6204 -0.3142
    14 F(19)  Bbb     0.0044     2.210     0.789     0.737 -0.6429  0.7649  0.0401
              Bcc     0.0122     6.137     2.190     2.047  0.2652  0.1732  0.9485
 
              Baa    -0.0193   -10.284    -3.670    -3.431  0.6362  0.7324 -0.2426
    15 H(1)   Bbb    -0.0096    -5.114    -1.825    -1.706  0.7385 -0.6691 -0.0832
              Bcc     0.0289    15.398     5.494     5.136  0.2232  0.1262  0.9666
 
              Baa    -0.0318   -16.949    -6.048    -5.653  0.1160 -0.0279  0.9929
    16 H(1)   Bbb     0.0023     1.221     0.436     0.407 -0.5622  0.8222  0.0887
              Bcc     0.0295    15.727     5.612     5.246  0.8188  0.5685 -0.0797
 
              Baa    -0.0063    -3.379    -1.206    -1.127 -0.3388 -0.1245  0.9326
    17 H(1)   Bbb    -0.0039    -2.057    -0.734    -0.686 -0.5681  0.8172 -0.0972
              Bcc     0.0102     5.436     1.940     1.813  0.7500  0.5627  0.3476
 
              Baa    -0.0119    -6.360    -2.270    -2.122  0.6743  0.4766 -0.5641
    18 H(1)   Bbb    -0.0033    -1.766    -0.630    -0.589 -0.6059  0.7937 -0.0537
              Bcc     0.0152     8.127     2.900     2.711  0.4221  0.3780  0.8240
 
              Baa    -0.0138    -7.377    -2.632    -2.461  0.8182  0.5637 -0.1132
    19 H(1)   Bbb    -0.0023    -1.205    -0.430    -0.402 -0.5552  0.8258  0.0992
              Bcc     0.0161     8.582     3.062     2.863  0.1494 -0.0183  0.9886
 
              Baa    -0.0290   -15.500    -5.531    -5.170  0.3683  0.3280  0.8699
    20 H(1)   Bbb    -0.0010    -0.550    -0.196    -0.184  0.7112 -0.7020 -0.0364
              Bcc     0.0301    16.050     5.727     5.354  0.5987  0.6321 -0.4918
 
              Baa    -0.0045    -2.417    -0.862    -0.806  0.7401  0.4285  0.5184
    21 H(1)   Bbb    -0.0037    -1.964    -0.701    -0.655 -0.5520  0.8273  0.1042
              Bcc     0.0082     4.381     1.563     1.461 -0.3842 -0.3632  0.8488
 

 ---------------------------------------------------------------------------------

 No NMR shielding tensors so no spin-rotation constants.
 Leave Link  601 at Tue May  6 19:27:33 2025, MaxMem=   524288000 cpu:               0.6 elap:               0.2
 (Enter /usr/license/gaussian16_new/rev_c01/avx2/g16/l9999.exe)

 Test job not archived.
 1\1\GINC-TELLURIUM3\SP\UwB97XD\def2SVP\C9H7B1F2N2(1+,2)\PITESA\06-May-
 2025\0\\#p nosym unit=AU wb97xd def2svp GFINPUT charge\\SHARC-GAUSSIAN
  job\\1,2\N,0,-5.8703970042,-1.6234930012,10.6968230076\N,0,-6.5669940
 047,-1.9998590014,8.3205540059\C,0,-5.8287660041,-1.5500430011,12.0486
 210086\C,0,-4.7961270034,-0.7314580005,12.4794030089\C,0,-4.1385390029
 ,-0.2755630002,11.3408960081\C,0,-4.8206110034,-0.8297290006,10.225902
 0073\C,0,-4.6233040033,-0.6645940005,8.8515990063\C,0,-5.4780910039,-1
 .2197720009,7.9058950056\C,0,-5.5447770039,-1.1215020008,6.4946440046\
 C,0,-6.6293930047,-1.8124360013,6.0554650043\C,0,-7.2533780052,-2.3433
 000017,7.2173160051\B,0,-6.8356910049,-2.4435970017,9.793609007\F,0,-6
 .5809840047,-3.8073310027,9.9392180071\F,0,-8.1647690058,-2.1903220016
 ,10.1397460072\H,0,-3.9474400028,-0.0810480001,8.5954810061\H,0,-7.989
 6980057,-2.846811002,7.2317590051\H,0,-3.3964560024,0.3343230002,11.36
 15540081\H,0,-4.5343430032,-0.5268120004,13.3853040095\H,0,-6.95378500
 49,-1.9248900014,5.1626630037\H,0,-6.4104280046,-2.1275100015,12.56908
 60089\H,0,-4.8766360035,-0.5470740004,5.9872780043\\Version=ES64L-G16R
 evC.01\HF=-680.4302416\S2=0.849919\S2-1=0.\S2A=0.753067\RMSD=6.025e-09
 \Dipole=1.9083373,1.9215131,-0.6510585\Quadrupole=-47.4713568,-140.410
 3819,187.8817387,15.3377084,-151.2343038,-14.9853348\PG=C01 [X(C9H7B1F
 2N2)]\\@


 THE HURRIEDER I GO, THE BEHINDER I GET.
 Job cpu time:       0 days  0 hours  6 minutes 20.1 seconds.
 Elapsed time:       0 days  0 hours  1 minutes 36.1 seconds.
 File lengths (MBytes):  RWF=     68 Int=      0 D2E=      0 Chk=      6 Scr=      2
 Normal termination of Gaussian 16 at Tue May  6 19:27:33 2025.
