
                                 *****************
                                 * O   R   C   A *
                                 *****************

                                            #,                                       
                                            ###                                      
                                            ####                                     
                                            #####                                    
                                            ######                                   
                                           ########,                                 
                                     ,,################,,,,,                         
                               ,,#################################,,                 
                          ,,##########################################,,             
                       ,#########################################, ''#####,          
                    ,#############################################,,   '####,        
                  ,##################################################,,,,####,       
                ,###########''''           ''''###############################       
              ,#####''   ,,,,##########,,,,          '''####'''          '####       
            ,##' ,,,,###########################,,,                        '##       
           ' ,,###''''                  '''############,,,                           
         ,,##''                                '''############,,,,        ,,,,,,###''
      ,#''                                            '''#######################'''  
     '                                                          ''''####''''         
             ,#######,   #######,   ,#######,      ##                                
            ,#'     '#,  ##    ##  ,#'     '#,    #''#        ,####,   ,####,        
            ##       ##  ##   ,#'  ##            #'  '#       #'       #'  '#        
            ##       ##  #######   ##           ,######,      #####,   #    #        
            '#,     ,#'  ##    ##  '#,     ,#' ,#      #,     #,   #   #,  ,#        
             '#######'   ##     ##  '#######'  #'      '#     '####' # '####'        



                #########################################################
                #                        -***-                          #
                #          Department of theory and spectroscopy        #
                #                                                       #
                #                      Frank Neese                      #
                #                                                       #
                #     Directorship, Architecture, Infrastructure        #
                #                    SHARK, DRIVERS                     #
                #        Core code/Algorithms in most modules           #
                #                                                       #
                #        Max Planck Institute fuer Kohlenforschung      #
                #                Kaiser Wilhelm Platz 1                 #
                #                 D-45470 Muelheim/Ruhr                 #
                #                      Germany                          #
                #                                                       #
                #                  All rights reserved                  #
                #                        -***-                          #
                #########################################################


                         Program Version 6.0.0  -   RELEASE  -


 With contributions from (in alphabetic order):
   Daniel Aravena         : Magnetic Suceptibility
   Michael Atanasov       : Ab Initio Ligand Field Theory (pilot matlab implementation)
   Alexander A. Auer      : GIAO ZORA, VPT2 properties, NMR spectrum
   Ute Becker             : All parallelization in ORCA, NUMFREQ, NUMCALC
   Giovanni Bistoni       : ED, misc. LED, open-shell LED, HFLD
   Martin Brehm           : Molecular dynamics
   Dmytro Bykov           : pre 5.0 version of the SCF Hessian
   Marcos Casanova-Páez   : Triplet and SCS-CIS(D). UHF-(DLPNO)-IP/EA/STEOM-CCSD. UHF-CVS-IP/STEOM-CCSD
   Vijay G. Chilkuri      : MRCI spin determinant printing, contributions to CSF-ICE
   Pauline Colinet        : FMM embedding
   Dipayan Datta          : RHF DLPNO-CCSD density
   Achintya Kumar Dutta   : EOM-CC, STEOM-CC
   Nicolas Foglia         : Exact transition moments, OPA infrastructure, MCD improvements
   Dmitry Ganyushin       : Spin-Orbit,Spin-Spin,Magnetic field MRCI
   Miquel Garcia          : C-PCM and meta-GGA Hessian, CCSD/C-PCM, Gaussian charge scheme
   Tiago L. C. Gouveia    : GS-ROHF, GS-ROCIS
   Yang Guo               : DLPNO-NEVPT2, F12-NEVPT2, CIM, IAO-localization
   Andreas Hansen         : Spin unrestricted coupled pair/coupled cluster methods
   Ingolf Harden          : AUTO-CI MPn and infrastructure 
   Benjamin Helmich-Paris : MC-RPA, TRAH-(SCF,CASSCF), AVAS, COSX integrals, SCF dyn. polar.
   Lee Huntington         : MR-EOM, pCC
   Robert Izsak           : Overlap fitted RIJCOSX, COSX-SCS-MP3, EOM
   Riya Kayal             : Wick's Theorem for AUTO-CI, AUTO-CI UHF-CCSDT
   Emily Kempfer          : AUTO-CI, RHF CISDT and CCSDT
   Christian Kollmar      : KDIIS, OOCD, Brueckner-CCSD(T), CCSD density, CASPT2, CASPT2-K, improved NEVPT2
   Axel Koslowski         : Symmetry handling
   Simone Kossmann        : Meta GGA functionals, TD-DFT gradient, OOMP2, (MP2 Hessian; deprecated post 5.0)
   Lucas Lang             : DCDCAS
   Marvin Lechner         : AUTO-CI (C++ implementation), FIC-MRCC
   Spencer Leger          : CASSCF response
   Dagmar Lenk            : GEPOL surface, SMD, ORCA-2-JSON
   Dimitrios Liakos       : Extrapolation schemes; Compound Job, initial MDCI parallelization
   Dimitrios Manganas     : Further ROCIS development; embedding schemes. LFT, Crystal Embedding
   Dimitrios Pantazis     : SARC Basis sets
   Anastasios Papadopoulos: AUTO-CI, single reference methods and gradients
   Taras Petrenko         : pre 6.0 DFT Hessian and TD-DFT gradient, (ASA, deprecated), ECA, 1-Electron XAS/XES, NRVS
   Peter Pinski           : DLPNO-MP2, DLPNO-MP2 Gradient
   Christoph Reimann      : Effective Core Potentials
   Marius Retegan         : Local ZFS, SOC
   Christoph Riplinger    : Optimizer, TS searches, QM/MM, DLPNO-CCSD(T), (RO)-DLPNO pert. Triples
   Michael Roemelt        : Original ROCIS implementation
   Masaaki Saitow         : Open-shell DLPNO-CCSD energy and density
   Barbara Sandhoefer     : DKH picture change effects
   Kantharuban Sivalingam : CASSCF convergence/infrastructure, NEVPT2 and variants, FIC-MRCI
   Bernardo de Souza      : ESD, SOC TD-DFT
   Georgi Stoychev        : AutoAux, RI-MP2 NMR, DLPNO-MP2 response, X2C
   Van Anh Tran           : RI-MP2 g-tensors
   Willem Van den Heuvel  : Paramagnetic NMR
   Zikuan Wang            : NOTCH, Electric field optimization 
   Frank Wennmohs         : Technical directorship and infrastructure
   Hang Xu                : AUTO-CI-Response properties 


 We gratefully acknowledge several colleagues who have allowed us to
 interface, adapt or use parts of their codes:
   Stefan Grimme, W. Hujo, H. Kruse, P. Pracht,  : VdW corrections, initial TS optimization,
                  C. Bannwarth, S. Ehlert,         DFT functionals, gCP, sTDA/sTD-DF
                  L. Wittmann, M. Mueller
   Ed Valeev, F. Pavosevic, A. Kumar             : LibInt (2-el integral package), F12 methods
   Garnet Chan, S. Sharma, J. Yang, R. Olivares  : DMRG
   Ulf Ekstrom                                   : XCFun DFT Library
   Mihaly Kallay                                 : mrcc  (arbitrary order and MRCC methods)
   Frank Weinhold                                : gennbo (NPA and NBO analysis)
   Simon Mueller                                 : openCOSMO-RS
   Christopher J. Cramer and Donald G. Truhlar   : smd solvation model
   Lars Goerigk                                  : TD-DFT with DH, B97 family of functionals
   V. Asgeirsson, H. Jonsson                     : NEB implementation
   FAccTs GmbH                                   : IRC, NEB, NEB-TS, DLPNO-Multilevel, CI-OPT
                                                   MM, QMMM, 2- and 3-layer-ONIOM, Crystal-QMMM,
                                                   LR-CPCM, SF, NACMEs, symmetry and pop. for TD-DFT,
                                                   nearIR, NL-DFT gradient (VV10), updates on ESD,
                                                   ML-optimized integration grids, MBIS, APM,
                                                   GOAT, DOCKER, SOLVATOR, interface openCOSMO-RS
   S Lehtola, MJT Oliveira, MAL Marques          : LibXC Library
   Liviu Ungur et al                             : ANISO software


 Your calculation uses the libint2 library for the computation of 2-el integrals
 For citations please refer to: http://libint.valeyev.net

 Your ORCA version has been built with support for libXC version: 6.2.2
 For citations please refer to: https://libxc.gitlab.io

 This ORCA versions uses:
   CBLAS   interface :  Fast vector & matrix operations
   LAPACKE interface :  Fast linear algebra routines
   SCALAPACK package :  Parallel linear algebra routines
   Shared memory     :  Shared parallel matrices
   BLAS/LAPACK       :  OpenBLAS 0.3.27  USE64BITINT DYNAMIC_ARCH NO_AFFINITY Zen SINGLE_THREADED
        Core in use  :  Zen
   Copyright (c) 2011-2014, The OpenBLAS Project


NOTE: MaxCore=1000 MB was set to SCF,MP2,MDCI,CIPSI,MRCI and CIS
      => If you want to overwrite this, your respective input block should be placed after the MaxCore statement
SCAN-COORDS
Your calculation utilizes the atom-pairwise dispersion correction
with the Becke-Johnson damping scheme (D3BJ)


Warning: RI and relativity are on but no J-basis has been assigned. Assigning SARC/J (nothing to worry about!)
================================================================================

----- Orbital basis set information -----
Your calculation utilizes the basis: 6-31G
   H-He, Li-Ne : W. J. Hehre, R. Ditchfield and J.A. Pople, J. Chem. Phys. 56, 2257 (1972).
                 Note: He and Ne are unpublished basis sets taken from the Gaussian program.
                 Note: Li and B from J. D. Dill and J. A. Pople, J. Chem. Phys. 62, 2921 (1975).
   Na - Ar     : M. M. Francl, W. J. Pietro, W. J. Hehre, J. S. Binkley, M. S. Gordon, 
                 D. J. DeFrees and J. A. Pople, J. Chem. Phys. 77, 3654 (1982).
   K - Zn      : V. A. Rassolov, J. A. Pople, M. A. Ratner, and T. L. Windus, J. Chem. Phys. 109, 1223 (1998).

The basis set includes element-specific modifications.

Your calculation utilizes the basis: cc-pVQZ 
       H, B-Ne : Obtained from the ccRepo (grant-hill.group.shef.ac.uk/ccrepo) Feb. 2017
                 T. H. Dunning, Jr., J. Chem. Phys. 90, 1007 (1989)
            He : Obtained from the ccRepo (grant-hill.group.shef.ac.uk/ccrepo) Feb. 2017
                 D. E. Woon, T. H. Dunning, Jr., J. Chem. Phys. 100, 2975 (1994)
  Li-Be, Na-Mg : Obtained from the ccRepo (grant-hill.group.shef.ac.uk/ccrepo) Feb. 2017
                 B. P. Prascher, D. E. Woon, K. A. Peterson, T. H. Dunning, Jr., A. K. Wilson, Theor. Chem. Acc. 128, 69 (2011)
         Al-Ar : Obtained from the ccRepo (grant-hill.group.shef.ac.uk/ccrepo) Feb. 2017
                 D. E. Woon, T. H. Dunning, Jr., J. Chem. Phys. 98, 1358 (1993)
            Ca : Obtained from the Peterson Research Group Website (tyr0.chem.wsu.edu/~kipeters) Feb. 2017
                 J. Koput, K. A. Peterson, J. Phys. Chem. 106, 9595 (2002)
         Sc-Zn : Obtained from the ccRepo (grant-hill.group.shef.ac.uk/ccrepo) Feb. 2017
                 N. B. Balabanov, K. A. Peterson, J. Chem. Phys. 123, 064107 (2005)
                 N. B. Balabanov, K. A. Peterson, J. Chem. Phys. 125, 074110 (2006)
         Ga-Kr : Obtained from the ccRepo (grant-hill.group.shef.ac.uk/ccrepo) Feb. 2017
                 A. K. Wilson, D. E. Woon, K. A. Peterson, T. H. Dunning, Jr., J. Chem. Phys. 110, 7667 (1999)

----- AuxJ basis set information -----
Your calculation utilizes the auxiliary basis: SARC/J 
   decontracted def2/J up to Kr:
   F. Weigend, Phys. Chem. Chem. Phys. 8, 1057 (2006)
   and SARC auxiliary basis sets beyond Kr:
   D. A. Pantazis and F. Neese, J. Chem. Theory Comput. 5, 2229 (2009).
   D. A. Pantazis, X. Y. Chen, C. R. Landis and F. Neese, J. Chem. Theory Comput. 4, 908 (2008).
   D. A. Pantazis and F. Neese, Theor. Chem. Acc. 131, 1292 (2012).
   D. A. Pantazis and F. Neese, J. Chem. Theory Comput. 7, 677 (2011).

================================================================================
                                        WARNINGS
                       Please study these warnings very carefully!
================================================================================


WARNING: your system is open-shell and RHF/RKS was chosen
  ===> : WILL SWITCH to UHF/UKS


WARNING: In scalar relativistic gradient/hessian runs we need the one-center approximation
  ===> : %rel OneCenter is turned on

WARNING: Relativistic property calculations require picture change transformations!
  ===> : Setting %rel PictureChange = 1

WARNING: Picture change corrections for electric properties are not implemented for ZORA(MP),
         however, the errors are usually negligible.
INFO   : Checking CIS options ...

WARNING: CIS/ROCIS methods need fully converged wavefunctions
  ===> : Setting SCFConvForced true
         You can overwrite this default with %scf ConvForced false 


================================================================================
                                       INPUT FILE
================================================================================
NAME = ORCA.inp
|  1> ! 6-31G b3lyp D3 rijcosx tightscf zora nousesym engrad
|  2> %maxcore 1000
|  3> 
|  4> %basis
|  5> 	newgto F "cc-pvqz" end
|  6> end
|  7> 
|  8> %method
|  9> 	frozencore -14
| 10> end
| 11> 
| 12> %tddft
| 13> 	tda true
| 14> 	nroots 4
| 15> 	sgradlist 0,1,2,3,4
| 16> end
| 17> 
| 18> %output
| 19> 	Print[ P_MOs ] 1
| 20> end
| 21> 
| 22> %scf
| 23> 	maxiter 700
| 24> end
| 25> 
| 26> %coords
| 27> 	Ctyp xyz
| 28> 	units bohrs
| 29> 	charge 1
| 30> 	mult 2
| 31> 	coords
| 32> 	S         0.000000000      0.000000000      0.000000000
| 33> 	O         0.000000000      2.456643962      1.417294593
| 34> 	O         0.000000000     -2.456643962      1.606267206
| 35> 	end
| 36> end
| 37> 
| 38> 
| 39>                          ****END OF INPUT****
================================================================================

                     *******************************
                     * Energy+Gradient Calculation *
                     *******************************

---------------------------------
CARTESIAN COORDINATES (ANGSTROEM)
---------------------------------
  S      0.000000    0.000000    0.000000
  O      0.000000    1.300000    0.750000
  O      0.000000   -1.300000    0.850000

----------------------------
CARTESIAN COORDINATES (A.U.)
----------------------------
  NO LB      ZA    FRAG     MASS         X           Y           Z
   0 S    16.0000    0    32.060    0.000000    0.000000    0.000000
   1 O     8.0000    0    15.999    0.000000    2.456644    1.417295
   2 O     8.0000    0    15.999    0.000000   -2.456644    1.606267

--------------------------------
INTERNAL COORDINATES (ANGSTROEM)
--------------------------------
 S      0   0   0     0.000000000000     0.00000000     0.00000000
 O      1   0   0     1.500833094468     0.00000000     0.00000000
 O      1   2   0     1.553222449074   116.83984898     0.00000000

---------------------------
INTERNAL COORDINATES (A.U.)
---------------------------
 S      0   0   0     0.000000000000     0.00000000     0.00000000
 O      1   0   0     2.836163521269     0.00000000     0.00000000
 O      1   2   0     2.935165053809   116.83984898     0.00000000

---------------------
BASIS SET INFORMATION
---------------------
There are 2 groups of distinct atoms

 Group   1 Type S   : 16s10p contracted to 4s3p pattern {6631/631}
 Group   2 Type O   : 10s4p contracted to 3s2p pattern {631/31}

Atom   0S    basis set group =>   1
Atom   1O    basis set group =>   2
Atom   2O    basis set group =>   2
---------------------------------
AUXILIARY/J BASIS SET INFORMATION
---------------------------------
There are 2 groups of distinct atoms

 Group   1 Type S   : 14s5p5d2f1g contracted to 14s5p5d2f1g pattern {11111111111111/11111/11111/11/1}
 Group   2 Type O   : 12s5p4d2f1g contracted to 12s5p4d2f1g pattern {111111111111/11111/1111/11/1}

Atom   0S    basis set group =>   1
Atom   1O    basis set group =>   2
Atom   2O    basis set group =>   2
------------------------------------------------------------------------------
                             ORCA STARTUP CALCULATIONS
                           -- RI-GTO INTEGRALS CHOSEN --
------------------------------------------------------------------------------
------------------------------------------------------------------------------
                   ___                                                        
                  /   \      - P O W E R E D   B Y -                         
                 /     \                                                     
                 |  |  |   _    _      __       _____    __    __             
                 |  |  |  | |  | |    /  \     |  _  \  |  |  /  |          
                  \  \/   | |  | |   /    \    | | | |  |  | /  /          
                 / \  \   | |__| |  /  /\  \   | |_| |  |  |/  /          
                |  |  |   |  __  | /  /__\  \  |    /   |      \           
                |  |  |   | |  | | |   __   |  |    \   |  |\   \          
                \     /   | |  | | |  |  |  |  | |\  \  |  | \   \       
                 \___/    |_|  |_| |__|  |__|  |_| \__\ |__|  \__/        
                                                                              
                      - O R C A' S   B I G   F R I E N D -                    
                                      &                                       
                       - I N T E G R A L  F E E D E R -                       
                                                                              
 v1 FN, 2020, v2 2021, v3 2022-2024                                           
------------------------------------------------------------------------------


----------------------
SHARK INTEGRAL PACKAGE
----------------------

Number of atoms                             ...      3
Number of basis functions                   ...     31
Number of shells                            ...     17
Maximum angular momentum                    ...      1
Integral batch strategy                     ... SHARK/LIBINT Hybrid
RI-J (if used) integral strategy            ... SPLIT-RIJ (Revised 2003 algorithm where possible)
Printlevel                                  ...      1
Contraction scheme used                     ... SEGMENTED contraction
Prescreening option                         ... SCHWARTZ
   Thresh                                   ... 2.500e-11
   Tcut                                     ... 2.500e-12
   Tpresel                                  ... 2.500e-12 
Coulomb Range Separation                    ... NOT USED
Exchange Range Separation                   ... NOT USED
Multipole approximations                    ... NOT USED
Finite Nucleus Model                        ... NOT USED
CABS basis                                  ... NOT available
Auxiliary Coulomb fitting basis             ... AVAILABLE
   # of basis functions in Aux-J            ...    217
   # of shells in Aux-J                     ...     75
   Maximum angular momentum in Aux-J        ...      4
Auxiliary J/K fitting basis                 ... NOT available
Auxiliary Correlation fitting basis         ... NOT available
Auxiliary 'external' fitting basis          ... NOT available

Checking pre-screening integrals            ... done (  0.0 sec) Dimension = 17
Check shell pair data                       ... done (  0.0 sec)
Shell pair information
Shell pair cut-off parameter TPreSel        ...   2.5e-12
Total number of shell pairs                 ...       153
Shell pairs after pre-screening             ...       150
Total number of primitive shell pairs       ...      1578
Primitive shell pairs kept                  ...      1221
          la=0 lb=0:     52 shell pairs
          la=1 lb=0:     70 shell pairs
          la=1 lb=1:     28 shell pairs

Calculating one electron integrals          ... done (  0.0 sec)
Calculating RI/J V-Matrix + Cholesky decomp.... done (  0.0 sec)
Calculating Nuclear repulsion               ... done (  0.0 sec) ENN=    101.756797918274 Eh

Diagonalization of the overlap matrix:
Smallest eigenvalue                        ... 4.470e-02
Time for diagonalization                   ...    0.000 sec
Threshold for overlap eigenvalues          ... 1.000e-07
Number of eigenvalues below threshold      ... 0
Time for construction of square roots      ...    0.000 sec
Total time needed                          ...    0.001 sec

-------------------
DFT GRID GENERATION
-------------------

General Integration Accuracy     IntAcc      ... 4.388
Radial Grid Type                 RadialGrid  ... OptM3 with GC (2021)
Angular Grid (max. ang.)         AngularGrid ... 4 (Lebedev-302)
Angular grid pruning method      GridPruning ... 4 (adaptive)
Weight generation scheme         WeightScheme... mBecke (2022)
Basis function cutoff            BFCut       ... 1.0000e-11
Integration weight cutoff        WCut        ... 1.0000e-14
Partially contracted basis set               ... off
Rotationally invariant grid construction     ... off
Angular grids for H and He will be reduced by one unit

Total number of grid points                  ...    19619
Total number of batches                      ...      309
Average number of points per batch           ...       63
Average number of grid points per atom       ...     6540

--------------------
COSX GRID GENERATION
--------------------

GRIDX 1
-------
General Integration Accuracy     IntAcc      ... 3.816
Radial Grid Type                 RadialGrid  ... OptM3 with GC (2021)
Angular Grid (max. ang.)         AngularGrid ... 1 (Lebedev-50)
Angular grid pruning method      GridPruning ... 4 (adaptive)
Weight generation scheme         WeightScheme... mBecke (2022)
Basis function cutoff            BFCut       ... 1.0000e-11
Integration weight cutoff        WCut        ... 1.0000e-14
Partially contracted basis set               ... on
Rotationally invariant grid construction     ... off
Angular grids for H and He will be reduced by one unit

Total number of grid points                  ...     3513
Total number of batches                      ...       29
Average number of points per batch           ...      121
Average number of grid points per atom       ...     1171
UseSFitting                                  ... on

GRIDX 2
-------
General Integration Accuracy     IntAcc      ... 4.020
Radial Grid Type                 RadialGrid  ... OptM3 with GC (2021)
Angular Grid (max. ang.)         AngularGrid ... 2 (Lebedev-110)
Angular grid pruning method      GridPruning ... 4 (adaptive)
Weight generation scheme         WeightScheme... mBecke (2022)
Basis function cutoff            BFCut       ... 1.0000e-11
Integration weight cutoff        WCut        ... 1.0000e-14
Partially contracted basis set               ... on
Rotationally invariant grid construction     ... off
Angular grids for H and He will be reduced by one unit

Total number of grid points                  ...     5736
Total number of batches                      ...       46
Average number of points per batch           ...      124
Average number of grid points per atom       ...     1912
UseSFitting                                  ... on

GRIDX 3
-------
General Integration Accuracy     IntAcc      ... 4.338
Radial Grid Type                 RadialGrid  ... OptM3 with GC (2021)
Angular Grid (max. ang.)         AngularGrid ... 3 (Lebedev-194)
Angular grid pruning method      GridPruning ... 4 (adaptive)
Weight generation scheme         WeightScheme... mBecke (2022)
Basis function cutoff            BFCut       ... 1.0000e-11
Integration weight cutoff        WCut        ... 1.0000e-14
Partially contracted basis set               ... on
Rotationally invariant grid construction     ... off
Angular grids for H and He will be reduced by one unit

Total number of grid points                  ...    13422
Total number of batches                      ...      107
Average number of points per batch           ...      125
Average number of grid points per atom       ...     4474
UseSFitting                                  ... on
Initializing property integral containers    ... done (  0.0 sec)

SHARK setup successfully completed in   0.4 seconds

Maximum memory used throughout the entire STARTUP-calculation: 9.8 MB
------------------------------------------------------------------------------
                          ORCA RELATIVISTIC HAMILTONIAN
------------------------------------------------------------------------------

Relativistic Method            ... ZORA(MP)
Treatment of potential         ... Van Wuellen
Nucleus model                  ... Point Nucleus
Speed of light used            ... 137.03598950000000


            *************************************************
            *         ZERO ORDER REGULAR APPROXIMATION      *
            *                     ZORA(MP)                  *
            *            Programmed by FN according to      *
            *                   C. van Wuellen              *
            *       J. Chem. Phys. (1998) vol 109, 392-399  *
            *************************************************

Terms included in model potential: +V(e,N)+V(C)+V(Xa)+V(VWN-V)
Basis function cutoff value   ... 1.000000e-11
Loading the fitted atomic densities (ZORA)   ... done
Calculating the cutoffs                      ... done
Number of fit functions                      ... 38
One center approximation for ZORA is active
Finding unique atoms                  ... 2 atom types
AtomType   0 (S ) Member=  0 NMembers=   1, NRad=2000 NumBF= 13
             ... doing numerical integration
             ... adding submatrices to 1 actual atoms
AtomType   1 (O ) Member=  1 NMembers=   2, NRad=2000 NumBF=  9
             ... doing numerical integration
             ... adding submatrices to 2 actual atoms
             ... done with one-center part

Maximum memory used throughout the entire REL-calculation: 0.6 MB
-------------------------------------------------------------------------------
                                 ORCA GUESS
                   Start orbitals & Density for SCF / CASSCF
-------------------------------------------------------------------------------

------------
SCF SETTINGS
------------
Hamiltonian:
 Density Functional     Method          .... DFT(GTOs)
 Exchange Functional    Exchange        .... B88
   X-Alpha parameter    XAlpha          ....  0.666667
   Becke's b parameter  XBeta           ....  0.004200
 Correlation Functional Correlation     .... LYP
 LDA part of GGA corr.  LDAOpt          .... VWN-5
 Gradients option       PostSCFGGA      .... off
 Hybrid DFT is turned on
   Fraction HF Exchange ScalHFX         ....  0.200000
   Scaling of DF-GGA-X  ScalDFX         ....  0.720000
   Scaling of DF-GGA-C  ScalDFC         ....  0.810000
   Scaling of DF-LDA-C  ScalLDAC        ....  1.000000
   Perturbative correction              ....  0.000000
   NL short-range parameter             ....  4.800000
 RI-approximation to the Coulomb term is turned on
   Number of AuxJ basis functions       .... 217
   RIJ-COSX (HFX calculated with COS-X)).... on


General Settings:
 Integral files         IntName         .... ORCA
 Hartree-Fock type      HFTyp           .... UHF
 Total Charge           Charge          ....    1
 Multiplicity           Mult            ....    2
 Number of Electrons    NEL             ....   31
 Basis Dimension        Dim             ....   31
 Nuclear Repulsion      ENuc            ....    101.7567979183 Eh

Convergence Acceleration:
 AO-DIIS                CNVDIIS         .... on
   Start iteration      DIISMaxIt       ....    12
   Startup error        DIISStart       ....  0.200000
   # of expansion vecs  DIISMaxEq       ....     5
   Bias factor          DIISBfac        ....   1.050
   Max. coefficient     DIISMaxC        ....  10.000
 MO-DIIS                CNVKDIIS        .... off
 Trust-Rad. Augm. Hess. CNVTRAH         .... auto
   Auto Start mean grad. ratio tolernc. ....  1.125000
   Auto Start start iteration           ....    50
   Auto Start num. interpolation iter.  ....    10
   Max. Number of Micro iterations      ....    24
   Max. Number of Macro iterations      .... Maxiter - #DIIS iter
   Number of Davidson start vectors     ....     2
   Converg. threshold    (grad. norm)   ....   1.000e-05
   Grad. Scal. Fac. for Micro threshold ....   0.100
   Minimum threshold for Micro iter.    ....   1.000e-02
   NR start threshold (gradient norm)   ....   1.000e-04
   Initial trust radius                 ....   0.400
   Minimum AH scaling param. (alpha)    ....   1.000
   Maximum AH scaling param. (alpha)    .... 1000.000
   Quad. conv. algorithm                .... NR
   White noise on init. David. guess    .... on
   Maximum white noise                  ....   0.010
   Pseudo random numbers                .... off
   Inactive MOs                         .... canonical
   Orbital update algorithm             .... Taylor
   Preconditioner                       .... Diag
   Full preconditioner red. dimension   ....   250
 SOSCF                  CNVSOSCF        .... on
   Start iteration      SOSCFMaxIt      ....   150
   Startup grad/error   SOSCFStart      ....  0.003300
   Hessian update       SOSCFHessUp     .... L-BFGS
 Level Shifting         CNVShift        .... on
   Level shift para.    LevelShift      ....    0.2500
   Turn off err/grad.   ShiftErr        ....    0.0010
 Zerner damping         CNVZerner       .... off
 Static damping         CNVDamp         .... on
   Fraction old density DampFac         ....    0.7000
   Max. Damping (<1)    DampMax         ....    0.9800
   Min. Damping (>=0)   DampMin         ....    0.0000
   Turn off err/grad.   DampErr         ....    0.1000

SCF Procedure:
 Maximum # iterations   MaxIter         ....   700
 SCF integral mode      SCFMode         .... Direct
   Integral package                     .... SHARK and LIBINT hybrid scheme
 Reset frequency        DirectResetFreq ....    20
 Integral Threshold     Thresh          ....  2.500e-11 Eh
 Primitive CutOff       TCut            ....  2.500e-12 Eh

Convergence Tolerance:
 Convergence Check Mode ConvCheckMode   .... Total+1el-Energy
 Convergence forced     ConvForced      .... 1
 Energy Change          TolE            ....  1.000e-08 Eh
 1-El. energy change                    ....  1.000e-05 Eh
 Orbital Gradient       TolG            ....  1.000e-05
 Orbital Rotation angle TolX            ....  1.000e-05
 DIIS Error             TolErr          ....  5.000e-07

------------------------------
INITIAL GUESS: MODEL POTENTIAL
------------------------------
Loading ZORA relativistic densities                ... done
Calculating cut-offs                               ... done
Initializing the effective Hamiltonian             ... done
Setting up the integral package (SHARK)            ... done
Starting the Coulomb interaction                   ... done (   0.0 sec)
Making the grid                                    ... done (   0.0 sec)
Mapping shells                                     ... done
Starting the XC term evaluation                    ... done (   0.0 sec)
  promolecular density results
     # of electrons  =     32.000723889
     EX              =    -41.522421841
     EC              =     -1.247424401
     EX+EC           =    -42.769846242
Transforming the Hamiltonian                       ... done (   0.0 sec)
Diagonalizing the Hamiltonian                      ... done (   0.0 sec)
Back transforming the eigenvectors                 ... done (   0.0 sec)
Now organizing SCF variables                       ... done
                      ------------------
                      INITIAL GUESS DONE (   0.1 sec)
                      ------------------
             **** ENERGY FILE WAS UPDATED (ORCA.en.tmp) ****
Finished Guess after   0.1 sec
Maximum memory used throughout the entire GUESS-calculation: 5.9 MB

-------------------------------------------------------------------------------------------
                                      ORCA LEAN-SCF
                              memory conserving SCF solver
-------------------------------------------------------------------------------------------

----------------------------------------D-I-I-S--------------------------------------------
Iteration    Energy (Eh)           Delta-E    RMSDP     MaxDP     DIISErr   Damp  Time(sec)
-------------------------------------------------------------------------------------------
               ***  Starting incremental Fock matrix formation  ***
    1    -549.4182708793529173     0.00e+00  1.41e-02  1.28e-01  1.49e-01  0.700   0.4
Warning: op=1 Small HOMO/LUMO gap (   0.072) - skipping pre-diagonalization
         Will do a full diagonalization
    2    -549.5831486509290471    -1.65e-01  7.40e-03  7.83e-02  5.43e-02  0.700   0.3
                               ***Turning on AO-DIIS***
    3    -549.6237981493702591    -4.06e-02  2.63e-03  2.54e-02  2.96e-02  0.700   0.3
    4    -549.6488544891990387    -2.51e-02  4.38e-03  3.29e-02  2.92e-02  0.000   0.3
    5    -549.7178201681168730    -6.90e-02  1.70e-03  2.32e-02  1.94e-02  0.000   0.2
    6    -549.7210705069155665    -3.25e-03  6.98e-04  1.05e-02  8.65e-03  0.000   0.2
    7    -549.7215853374710832    -5.15e-04  4.56e-04  5.42e-03  3.82e-03  0.000   0.2
    8    -549.7216813107831967    -9.60e-05  2.84e-04  2.77e-03  3.74e-03  0.000   0.2
                              *** Initializing SOSCF ***
---------------------------------------S-O-S-C-F--------------------------------------
Iteration    Energy (Eh)           Delta-E    RMSDP     MaxDP     MaxGrad    Time(sec)
--------------------------------------------------------------------------------------
    9    -549.7217836066313339    -1.02e-04  2.85e-04  2.50e-03  1.92e-03     0.1
               *** Restarting incremental Fock matrix formation ***
   10    -549.7218465815898298    -6.30e-05  7.31e-04  7.44e-03  2.39e-03     0.3
               *** Scaled step length from 0.592867 to 0.200000 ***
   11    -549.7219776159796538    -1.31e-04  5.77e-03  5.41e-02  3.09e-03     0.4
   12    -549.7226702295547511    -6.93e-04  4.80e-03  4.76e-02  4.58e-03     0.4
   13    -549.7224848954087975     1.85e-04  2.47e-03  1.91e-02  9.32e-03     0.4
   14    -549.7230359162776949    -5.51e-04  5.70e-04  5.14e-03  2.85e-03     0.3
   15    -549.7230803807709663    -4.45e-05  3.99e-04  5.78e-03  1.77e-03     0.3
   16    -549.7231075470233463    -2.72e-05  4.58e-04  4.64e-03  9.83e-04     0.2
   17    -549.7231227147962045    -1.52e-05  3.31e-04  3.68e-03  5.93e-04     0.2
   18    -549.7231319783390973    -9.26e-06  2.14e-04  2.06e-03  2.67e-04     0.2
   19    -549.7231350578830416    -3.08e-06  5.52e-05  5.77e-04  1.71e-04     0.2
   20    -549.7231354118171112    -3.54e-07  1.82e-05  2.68e-04  7.20e-05     0.2
   21    -549.7231354597263362    -4.79e-08  4.37e-06  3.75e-05  1.28e-05     0.2
   22    -549.7231354632160674    -3.49e-09  1.25e-06  9.47e-06  3.91e-06     0.2
                 **** Energy Check signals convergence ****

               *****************************************************
               *                     SUCCESS                       *
               *           SCF CONVERGED AFTER  22 CYCLES          *
               *****************************************************

Recomputing exchange energy using gridx3       ... done (    0.286 sec)
Old exchange energy                            :     -8.181046304 Eh
New exchange energy                            :     -8.181026804 Eh
Exchange energy change after final integration :      0.000019500 Eh
Total energy after final integration           :   -549.723115964 Eh
             **** ENERGY FILE WAS UPDATED (ORCA.en.tmp) ****

----------------
TOTAL SCF ENERGY
----------------

Total Energy       :       -549.72311596368706 Eh          -14958.72647 eV

Components:
Nuclear Repulsion  :        101.75679791827399 Eh            2768.94324 eV
Electronic Energy  :       -651.47993338148990 Eh          -17727.67024 eV
One Electron Energy:       -947.91714533162076 Eh          -25794.13687 eV
Two Electron Energy:        296.43721195013080 Eh            8066.46663 eV

Virial components:
Potential Energy   :      -1094.84329417848858 Eh          -29792.20064 eV
Kinetic Energy     :        545.12017821480140 Eh           14833.47417 eV
Virial Ratio       :          2.00844389536993

DFT components:
N(Alpha)           :       15.999999536255 electrons
N(Beta)            :       15.000001912337 electrons
N(Total)           :       31.000001448592 electrons
E(X)               :      -32.672028731395 Eh       
E(C)               :       -1.419757954889 Eh       
E(XC)              :      -34.091786686284 Eh       

---------------
SCF CONVERGENCE
---------------

  Last Energy change         ...    3.4897e-09  Tolerance :   1.0000e-08
  Last MAX-Density change    ...    9.4731e-06  Tolerance :   1.0000e-07
  Last RMS-Density change    ...    1.2490e-06  Tolerance :   5.0000e-09
  Last DIIS Error            ...    1.9190e-03  Tolerance :   5.0000e-07
  Last Orbital Gradient      ...    3.9146e-06  Tolerance :   1.0000e-05
  Last Orbital Rotation      ...    1.6867e-05  Tolerance :   1.0000e-05


----------------------
UHF SPIN CONTAMINATION
----------------------

Warning: in a DFT calculation there is little theoretical justification to 
         calculate <S**2> as in Hartree-Fock theory. We will do it anyways
         but you should keep in mind that the values have only limited relevance

Expectation value of <S**2>     :     0.783025
Ideal value S*(S+1) for S=0.5   :     0.750000
Deviation                       :     0.033025

----------------
ORBITAL ENERGIES
----------------
                 SPIN UP ORBITALS
  NO   OCC          E(Eh)            E(eV) 
   0   1.0000     -90.088195     -2451.4244 
   1   1.0000     -19.653015      -534.7857 
   2   1.0000     -19.615682      -533.7698 
   3   1.0000      -8.559175      -232.9070 
   4   1.0000      -6.475698      -176.2127 
   5   1.0000      -6.470403      -176.0686 
   6   1.0000      -6.469473      -176.0433 
   7   1.0000      -1.510223       -41.0953 
   8   1.0000      -1.417608       -38.5751 
   9   1.0000      -1.009982       -27.4830 
  10   1.0000      -0.840560       -22.8728 
  11   1.0000      -0.822166       -22.3723 
  12   1.0000      -0.816886       -22.2286 
  13   1.0000      -0.717840       -19.5334 
  14   1.0000      -0.695347       -18.9213 
  15   1.0000      -0.669606       -18.2209 
  16   0.0000      -0.489672       -13.3247 
  17   0.0000      -0.314936        -8.5698 
  18   0.0000      -0.257391        -7.0040 
  19   0.0000      -0.047171        -1.2836 
  20   0.0000       0.031717         0.8631 
  21   0.0000       0.044094         1.1999 
  22   0.0000       0.077673         2.1136 
  23   0.0000       0.534625        14.5479 
  24   0.0000       0.545125        14.8336 
  25   0.0000       0.606114        16.4932 
  26   0.0000       0.634043        17.2532 

                 SPIN DOWN ORBITALS
  NO   OCC          E(Eh)            E(eV) 
   0   1.0000     -90.087639     -2451.4093 
   1   1.0000     -19.630339      -534.1687 
   2   1.0000     -19.613151      -533.7010 
   3   1.0000      -8.558513      -232.8890 
   4   1.0000      -6.476326      -176.2298 
   5   1.0000      -6.469777      -176.0516 
   6   1.0000      -6.467486      -175.9892 
   7   1.0000      -1.489708       -40.5370 
   8   1.0000      -1.383701       -37.6524 
   9   1.0000      -0.983403       -26.7597 
  10   1.0000      -0.808447       -21.9990 
  11   1.0000      -0.804238       -21.8844 
  12   1.0000      -0.788713       -21.4620 
  13   1.0000      -0.678479       -18.4623 
  14   1.0000      -0.657892       -17.9021 
  15   0.0000      -0.552112       -15.0237 
  16   0.0000      -0.483140       -13.1469 
  17   0.0000      -0.302636        -8.2352 
  18   0.0000      -0.231756        -6.3064 
  19   0.0000      -0.042662        -1.1609 
  20   0.0000       0.033023         0.8986 
  21   0.0000       0.050597         1.3768 
  22   0.0000       0.080567         2.1923 
  23   0.0000       0.554548        15.0900 
  24   0.0000       0.563148        15.3240 
  25   0.0000       0.644110        17.5271 
*Only the first 10 virtual orbitals were printed.
------------------
MOLECULAR ORBITALS (UHF)
------------------
                      0         1         2         3         4         5   
                 -90.08820 -19.65302 -19.61568  -8.55917  -6.47570  -6.47040
                   1.00000   1.00000   1.00000   1.00000   1.00000   1.00000
                  --------  --------  --------  --------  --------  --------
  0S   1s         0.997489 -0.000006 -0.000007 -0.278540  0.000170  0.000000
  0S   2s         0.009352  0.000029  0.000099  1.028272 -0.000661 -0.000000
  0S   1pz        0.000143 -0.000012 -0.000000  0.016506  0.136496  0.000000
  0S   1px        0.000000  0.000000  0.000000  0.000000  0.000000 -0.991975
  0S   1py        0.000016 -0.000038  0.000056  0.001694 -0.981688  0.000000
  0S   3s        -0.002750  0.000199  0.000363  0.031136 -0.000034  0.000000
  0S   2pz       -0.000252  0.000675  0.000630  0.002994  0.003830  0.000000
  0S   2px       -0.000000 -0.000000 -0.000000 -0.000000  0.000000 -0.026701
  0S   2py       -0.000036 -0.000707  0.000792  0.000401 -0.030174  0.000000
  0S   4s         0.000859  0.004809  0.004975 -0.008385  0.000170  0.000000
  0S   3pz       -0.000087  0.002444  0.002326 -0.000302 -0.000893 -0.000000
  0S   3px        0.000000 -0.000000  0.000000  0.000000 -0.000000  0.007208
  0S   3py        0.000000 -0.002591  0.002796 -0.000038  0.007130 -0.000000
  1O   1s        -0.000017  0.000106  0.995246 -0.000073  0.000333 -0.000000
  1O   2s        -0.000064  0.000240  0.027421  0.000138  0.000278 -0.000000
  1O   1pz       -0.000031  0.000139 -0.001071  0.000018  0.000121  0.000000
  1O   1px        0.000000 -0.000000 -0.000000 -0.000000  0.000000  0.000187
  1O   1py       -0.000044 -0.000047 -0.002117  0.000017  0.000298 -0.000000
  1O   3s         0.000299 -0.000968 -0.013846 -0.001162  0.000532 -0.000000
  1O   2pz       -0.000152 -0.000606  0.001721  0.001021 -0.001447  0.000000
  1O   2px       -0.000000  0.000000 -0.000000  0.000000  0.000000 -0.000112
  1O   2py       -0.000340  0.000786  0.003375  0.002110 -0.001974  0.000000
  2O   1s        -0.000016  0.995148 -0.000070 -0.000026 -0.000247  0.000000
  2O   2s        -0.000082  0.027757  0.000230  0.000146 -0.000277  0.000000
  2O   1pz       -0.000021 -0.001033  0.000133  0.000040 -0.000049  0.000000
  2O   1px        0.000000  0.000000  0.000000 -0.000000  0.000000  0.000164
  2O   1py        0.000023  0.001949  0.000052 -0.000034  0.000093 -0.000000
  2O   3s         0.000271 -0.013540 -0.000928 -0.000904 -0.000648  0.000000
  2O   2pz       -0.000161  0.001801 -0.000521  0.000998  0.001637  0.000000
  2O   2px       -0.000000  0.000000 -0.000000  0.000000  0.000000 -0.000138
  2O   2py        0.000315 -0.003147 -0.000792 -0.001841 -0.002134 -0.000000
                      6         7         8         9        10        11   
                  -6.46947  -1.51022  -1.41761  -1.00998  -0.84056  -0.82217
                   1.00000   1.00000   1.00000   1.00000   1.00000   1.00000
                  --------  --------  --------  --------  --------  --------
  0S   1s         0.004927 -0.045722  0.006634 -0.064716 -0.007328 -0.008254
  0S   2s        -0.018460  0.204166 -0.029537  0.281161  0.030831  0.039572
  0S   1pz        0.982118  0.065470 -0.005154 -0.028668 -0.006735 -0.188233
  0S   1px        0.000000  0.000000  0.000000  0.000000 -0.000000  0.000000
  0S   1py        0.136407  0.001220 -0.116963 -0.024241  0.165164  0.019140
  0S   3s         0.002704 -0.436523  0.065466 -0.720305 -0.088366 -0.074053
  0S   2pz        0.027789 -0.145184  0.013405  0.052624  0.014358  0.520441
  0S   2px        0.000000 -0.000000 -0.000000 -0.000000  0.000000 -0.000000
  0S   2py        0.004229 -0.004280  0.251658  0.059968 -0.461413 -0.051805
  0S   4s         0.001495  0.051423  0.000819 -0.183892 -0.036719 -0.047684
  0S   3pz       -0.006416  0.046920 -0.000714  0.009214 -0.003100  0.098625
  0S   3px       -0.000000 -0.000000 -0.000000 -0.000000  0.000000 -0.000000
  0S   3py       -0.001018 -0.000796 -0.075034 -0.002810 -0.010307  0.011260
  1O   1s        -0.000231  0.115549 -0.153092 -0.108046 -0.081373  0.025189
  1O   2s         0.000172 -0.256688  0.343693  0.255647  0.194622 -0.052026
  1O   1pz       -0.000230  0.058456 -0.075080  0.070479  0.260237  0.171611
  1O   1px       -0.000000 -0.000000  0.000000 -0.000000  0.000000 -0.000000
  1O   1py       -0.000199  0.114756 -0.120687  0.088186  0.228862 -0.205782
  1O   3s        -0.001566 -0.247126  0.345951  0.333869  0.286788 -0.122702
  1O   2pz        0.001103  0.021107 -0.036029  0.017511  0.113501  0.122022
  1O   2px        0.000000  0.000000  0.000000  0.000000  0.000000 -0.000000
  1O   2py        0.002154  0.052132 -0.059295  0.008858  0.078963 -0.092103
  2O   1s        -0.000092  0.137434  0.149138 -0.106314  0.054794  0.041414
  2O   2s         0.000235 -0.311368 -0.340955  0.259425 -0.138244 -0.097312
  2O   1pz       -0.000141  0.066437  0.064997  0.138716 -0.394399  0.199875
  2O   1px       -0.000000  0.000000  0.000000 -0.000000  0.000000 -0.000000
  2O   1py        0.000032 -0.115179 -0.090752 -0.120577  0.151180  0.372990
  2O   3s        -0.001359 -0.301452 -0.347026  0.322759 -0.173196 -0.158634
  2O   2pz        0.000869  0.030358  0.038231  0.048466 -0.198494  0.139423
  2O   2px       -0.000000  0.000000  0.000000 -0.000000  0.000000 -0.000000
  2O   2py       -0.001554 -0.061251 -0.055779 -0.025373  0.055224  0.183480
                     12        13        14        15        16        17   
                  -0.81689  -0.71784  -0.69535  -0.66961  -0.48967  -0.31494
                   1.00000   1.00000   1.00000   1.00000   0.00000   0.00000
                  --------  --------  --------  --------  --------  --------
  0S   1s        -0.000000 -0.014020 -0.000000  0.019164  0.000000 -0.029251
  0S   2s         0.000000  0.065792  0.000000 -0.089738 -0.000000  0.128027
  0S   1pz       -0.000000 -0.107017 -0.000000  0.081964 -0.000000  0.201159
  0S   1px       -0.206948  0.000000  0.059176  0.000000  0.225900  0.000000
  0S   1py       -0.000000 -0.044534  0.000000  0.012305 -0.000000 -0.057685
  0S   3s        -0.000000 -0.144783 -0.000000  0.203273  0.000000 -0.373620
  0S   2pz        0.000000  0.297665  0.000000 -0.224943  0.000000 -0.659802
  0S   2px        0.564445 -0.000000 -0.168187 -0.000000 -0.673341 -0.000000
  0S   2py        0.000000  0.120499 -0.000000 -0.040680  0.000000  0.183995
  0S   4s        -0.000000 -0.198150 -0.000000  0.306983 -0.000000 -0.652559
  0S   3pz        0.000000  0.024433  0.000000  0.023814 -0.000000 -0.574193
  0S   3px        0.126372 -0.000000 -0.042454 -0.000000 -0.251230  0.000000
  0S   3py       -0.000000 -0.076965  0.000000 -0.082175 -0.000000  0.133418
  1O   1s         0.000000  0.026755 -0.000000  0.002538  0.000000 -0.036602
  1O   2s        -0.000000 -0.080504  0.000000 -0.006785 -0.000000  0.078291
  1O   1pz        0.000000 -0.001684 -0.000000  0.561547 -0.000000  0.077756
  1O   1px        0.270432 -0.000000 -0.441486 -0.000000  0.460611  0.000000
  1O   1py       -0.000000 -0.392832  0.000000 -0.155746  0.000000 -0.366456
  1O   3s        -0.000000 -0.011690  0.000000 -0.031654 -0.000000  0.371438
  1O   2pz        0.000000 -0.007564 -0.000000  0.360840 -0.000000  0.045403
  1O   2px        0.156040 -0.000000 -0.301980 -0.000000  0.350554 -0.000000
  1O   2py       -0.000000 -0.237061  0.000000 -0.103706  0.000000 -0.366255
  2O   1s         0.000000 -0.010245 -0.000000 -0.000153 -0.000000 -0.057292
  2O   2s        -0.000000  0.032934  0.000000  0.021765  0.000000  0.128430
  2O   1pz        0.000000 -0.455336 -0.000000  0.189837  0.000000 -0.108425
  2O   1px        0.377487 -0.000000  0.514337  0.000000  0.313127  0.000000
  2O   1py        0.000000 -0.277797  0.000000 -0.267886  0.000000  0.425810
  2O   3s        -0.000000  0.018020  0.000000 -0.123913  0.000000  0.559234
  2O   2pz        0.000000 -0.265931 -0.000000  0.148092  0.000000 -0.135461
  2O   2px        0.217324 -0.000000  0.339888  0.000000  0.220578  0.000000
  2O   2py        0.000000 -0.172426  0.000000 -0.192660  0.000000  0.438657
                     18        19        20        21        22        23   
                  -0.25739  -0.04717   0.03172   0.04409   0.07767   0.53462
                   0.00000   0.00000   0.00000   0.00000   0.00000   0.00000
                  --------  --------  --------  --------  --------  --------
  0S   1s        -0.006589 -0.066129  0.000000  0.002909  0.005778 -0.001747
  0S   2s         0.032546  0.074836  0.000000 -0.014046 -0.009090  0.006710
  0S   1pz        0.030403 -0.001866 -0.000000  0.248094 -0.057247  0.013396
  0S   1px       -0.000000  0.000000  0.243750  0.000000 -0.000000  0.000000
  0S   1py        0.219937 -0.010534  0.000000 -0.050351 -0.283183  0.007285
  0S   3s        -0.073747 -1.625098  0.000000  0.036912  0.134679 -0.032975
  0S   2pz       -0.105529  0.010797  0.000000 -1.059676  0.245398 -0.078855
  0S   2px        0.000000 -0.000000 -1.047268 -0.000000  0.000000 -0.000000
  0S   2py       -0.735145  0.049894 -0.000000  0.212007  1.195326 -0.047657
  0S   4s        -0.284125  2.242982 -0.000000  0.082363 -0.110083 -0.273985
  0S   3pz       -0.166104  0.343590 -0.000000  1.445224 -0.275553 -0.510037
  0S   3px       -0.000000  0.000000  1.379034  0.000000 -0.000000  0.000000
  0S   3py       -0.958820 -0.122201  0.000000 -0.337926 -1.504010 -0.100551
  1O   1s        -0.066612  0.019625 -0.000000  0.002152  0.000417 -0.028088
  1O   2s         0.126781 -0.024251 -0.000000  0.009305 -0.043201  0.192227
  1O   1pz       -0.278432 -0.110518  0.000000 -0.091319  0.125149 -0.359716
  1O   1px        0.000000  0.000000 -0.066893 -0.000000 -0.000000 -0.000000
  1O   1py       -0.256032 -0.099316  0.000000 -0.036206  0.271391  0.371182
  1O   3s         0.789061 -0.455470  0.000000 -0.153070  0.431238  0.103959
  1O   2pz       -0.310695 -0.002227  0.000000 -0.135669  0.035398  0.411295
  1O   2px        0.000000 -0.000000 -0.127401 -0.000000 -0.000000  0.000000
  1O   2py       -0.347474  0.094210 -0.000000  0.044221  0.163059 -0.565683
  2O   1s         0.037563  0.024878 -0.000000  0.007377  0.002573 -0.015346
  2O   2s        -0.074613 -0.037981 -0.000000  0.010484  0.021922  0.103151
  2O   1pz        0.258941 -0.101280  0.000000 -0.130159 -0.058669 -0.580738
  2O   1px       -0.000000 -0.000000 -0.079193 -0.000000  0.000000  0.000000
  2O   1py       -0.064751  0.099068 -0.000000  0.115398  0.185672 -0.446404
  2O   3s        -0.432706 -0.532895  0.000000 -0.374975 -0.326801  0.073546
  2O   2pz        0.249983  0.050342  0.000000 -0.085941  0.042171  0.746194
  2O   2px       -0.000000  0.000000 -0.118488 -0.000000 -0.000000 -0.000000
  2O   2py       -0.127264 -0.117255  0.000000 -0.027377  0.100275  0.634734
                     24        25        26        27        28        29   
                   0.54512   0.60611   0.63404   0.63933   0.71260   1.04496
                   0.00000   0.00000   0.00000   0.00000   0.00000   0.00000
                  --------  --------  --------  --------  --------  --------
  0S   1s        -0.000000  0.009230 -0.016622 -0.000000  0.000336 -0.003049
  0S   2s         0.000000  0.008996 -0.028719 -0.000000 -0.005817  0.022315
  0S   1pz        0.000000 -0.020442  0.028170  0.000000 -0.001630  0.017452
  0S   1px       -0.000387  0.000000  0.000000  0.000291 -0.000000 -0.000000
  0S   1py       -0.000000  0.040153  0.018234  0.000000  0.034862 -0.058001
  0S   3s        -0.000000  0.324259 -0.628245 -0.000000 -0.009107 -0.034531
  0S   2pz       -0.000000  0.178304 -0.280261 -0.000000  0.002974 -0.123349
  0S   2px        0.008181 -0.000000 -0.000000 -0.005303  0.000000  0.000000
  0S   2py       -0.000000 -0.313430 -0.186535 -0.000000 -0.367541  0.549235
  0S   4s        -0.000000  0.052298 -0.092256 -0.000000 -0.020933 -0.461653
  0S   3pz       -0.000000 -0.006032  0.167170  0.000000 -0.062154 -0.267723
  0S   3px       -0.093884  0.000000  0.000000 -0.553726  0.000000  0.000000
  0S   3py       -0.000000 -0.098271 -0.058600 -0.000000  0.457712  0.884002
  1O   1s        -0.000000 -0.016015 -0.041643 -0.000000 -0.010797 -0.031162
  1O   2s         0.000000  0.177780  0.275044  0.000000  0.066832  0.767193
  1O   1pz       -0.000000  0.369294  0.668073  0.000000 -0.278686 -0.209655
  1O   1px        0.552434  0.000000  0.000000 -0.758675  0.000000 -0.000000
  1O   1py        0.000000 -0.133290  0.444893  0.000000  0.639566 -0.071982
  1O   3s         0.000000 -0.120978 -0.027969 -0.000000 -0.104208 -1.167669
  1O   2pz        0.000000 -0.485698 -1.001381 -0.000000  0.329774  0.559214
  1O   2px       -0.610539 -0.000000 -0.000000  1.026613 -0.000000 -0.000000
  1O   2py       -0.000000  0.154337 -0.801927 -0.000000 -0.951057  0.228298
  2O   1s        -0.000000  0.050590 -0.004314 -0.000000  0.006459  0.053407
  2O   2s         0.000000 -0.439932 -0.034877 -0.000000 -0.040241 -1.455023
  2O   1pz       -0.000000 -0.613090  0.161495  0.000000  0.133461  0.225122
  2O   1px       -0.751912 -0.000000  0.000000 -0.535241  0.000000  0.000000
  2O   1py       -0.000000  0.384733 -0.259739 -0.000000  0.586281 -0.193613
  2O   3s         0.000000  0.205031  0.077217  0.000000  0.127738  2.313646
  2O   2pz        0.000000  0.925075 -0.270494 -0.000000 -0.159141 -0.651366
  2O   2px        0.909163  0.000000 -0.000000  0.773244 -0.000000 -0.000000
  2O   2py        0.000000 -0.663490  0.420806  0.000000 -0.860465  0.660314
                     30   
                   1.11965
                   0.00000
                  --------
  0S   1s        -0.010497
  0S   2s         0.036812
  0S   1pz        0.042393
  0S   1px        0.000000
  0S   1py        0.014831
  0S   3s        -0.265058
  0S   2pz       -0.370073
  0S   2px       -0.000000
  0S   2py       -0.191030
  0S   4s        -1.618506
  0S   3pz       -0.795497
  0S   3px       -0.000000
  0S   3py       -0.290853
  1O   1s         0.049757
  1O   2s        -1.545395
  1O   1pz        0.061075
  1O   1px       -0.000000
  1O   1py        0.216791
  1O   3s         2.620811
  1O   2pz       -0.298765
  1O   2px       -0.000000
  1O   2py       -0.916096
  2O   1s         0.024138
  2O   2s        -0.846268
  2O   1pz       -0.025068
  2O   1px       -0.000000
  2O   1py       -0.146134
  2O   3s         1.485410
  2O   2pz       -0.021342
  2O   2px        0.000000
  2O   2py        0.620739

                      0         1         2         3         4         5   
                 -90.08764 -19.63034 -19.61315  -8.55851  -6.47633  -6.46978
                   1.00000   1.00000   1.00000   1.00000   1.00000   1.00000
                  --------  --------  --------  --------  --------  --------
  0S   1s         0.997489  0.000004  0.000008 -0.278537  0.000077  0.000000
  0S   2s         0.009351 -0.000023 -0.000098  1.028262 -0.000264 -0.000000
  0S   1pz        0.000146  0.000016 -0.000003  0.017273 -0.079140 -0.000000
  0S   1px        0.000000 -0.000000 -0.000000  0.000000 -0.000000  0.991998
  0S   1py        0.000016  0.000032 -0.000060  0.001639  0.987964  0.000000
  0S   3s        -0.002750 -0.000224 -0.000349  0.031119  0.000135 -0.000000
  0S   2pz       -0.000253 -0.000667 -0.000614  0.003065 -0.002200 -0.000000
  0S   2px       -0.000000  0.000000  0.000000  0.000000 -0.000000  0.026629
  0S   2py       -0.000035  0.000695 -0.000768  0.000370  0.030340  0.000000
  0S   4s         0.000859 -0.004613 -0.004953 -0.008411 -0.000072  0.000000
  0S   3pz       -0.000087 -0.002342 -0.002320 -0.000315  0.000523  0.000000
  0S   3px       -0.000000  0.000000  0.000000  0.000000  0.000000 -0.007212
  0S   3py        0.000000  0.002456 -0.002780 -0.000042 -0.007217 -0.000000
  1O   1s        -0.000017 -0.000112 -0.995273 -0.000070 -0.000344 -0.000000
  1O   2s        -0.000064 -0.000239 -0.027260  0.000115 -0.000297  0.000000
  1O   1pz       -0.000031 -0.000131  0.001054  0.000035 -0.000116 -0.000000
  1O   1px        0.000000  0.000000  0.000000 -0.000000  0.000000 -0.000184
  1O   1py       -0.000044  0.000046  0.002122  0.000030 -0.000296  0.000000
  1O   3s         0.000299  0.000957  0.013754 -0.001128 -0.000564 -0.000000
  1O   2pz       -0.000152  0.000573 -0.001694  0.000999  0.001481  0.000000
  1O   2px        0.000000 -0.000000  0.000000 -0.000000 -0.000000  0.000127
  1O   2py       -0.000340 -0.000762 -0.003348  0.002101  0.002070  0.000000
  2O   1s        -0.000016 -0.995377  0.000076 -0.000028  0.000237 -0.000000
  2O   2s        -0.000082 -0.026516 -0.000231  0.000127  0.000335 -0.000000
  2O   1pz       -0.000022  0.001012 -0.000134  0.000070  0.000013 -0.000000
  2O   1px       -0.000000 -0.000000 -0.000000 -0.000000  0.000000 -0.000175
  2O   1py        0.000023 -0.001919 -0.000053 -0.000038 -0.000079  0.000000
  2O   3s         0.000271  0.012959  0.000932 -0.000876  0.000502 -0.000000
  2O   2pz       -0.000161 -0.001730  0.000514  0.000986 -0.001550  0.000000
  2O   2px        0.000000 -0.000000  0.000000  0.000000  0.000000  0.000162
  2O   2py        0.000315  0.003050  0.000791 -0.001832  0.002014 -0.000000
                      6         7         8         9        10        11   
                  -6.46749  -1.48971  -1.38370  -0.98340  -0.80845  -0.80424
                   1.00000   1.00000   1.00000   1.00000   1.00000   1.00000
                  --------  --------  --------  --------  --------  --------
  0S   1s         0.005152  0.047762  0.005951  0.064738  0.000000  0.009671
  0S   2s        -0.019302 -0.213181 -0.026129 -0.280847 -0.000000 -0.044678
  0S   1pz        0.988402 -0.067810 -0.010667  0.028440  0.000000  0.144212
  0S   1px        0.000000  0.000000 -0.000000 -0.000000  0.213152 -0.000000
  0S   1py        0.079072 -0.021086  0.120680  0.009104 -0.000000 -0.127484
  0S   3s         0.002778  0.458738  0.060608  0.724822  0.000000  0.095760
  0S   2pz        0.027904  0.153366  0.025444 -0.048855 -0.000000 -0.396425
  0S   2px        0.000000 -0.000000  0.000000  0.000000 -0.581924  0.000000
  0S   2py        0.002476  0.044157 -0.263702 -0.020827  0.000000  0.359506
  0S   4s         0.001480 -0.044166 -0.000331  0.193683  0.000000  0.057728
  0S   3pz       -0.006481 -0.044413 -0.006601 -0.009391 -0.000000 -0.073875
  0S   3px       -0.000000  0.000000 -0.000000 -0.000000 -0.131965  0.000000
  0S   3py       -0.000583 -0.014048  0.073433 -0.002649  0.000000  0.005646
  1O   1s        -0.000211 -0.141723  0.131249  0.110400  0.000000  0.031653
  1O   2s         0.000196  0.314192 -0.293433 -0.262118 -0.000000 -0.082948
  1O   1pz       -0.000234 -0.064720  0.056938 -0.071588 -0.000000 -0.292262
  1O   1px       -0.000000  0.000000 -0.000000  0.000000 -0.342447  0.000000
  1O   1py       -0.000184 -0.135674  0.093287 -0.100004 -0.000000  0.021446
  1O   3s        -0.001549  0.306019 -0.306798 -0.346246 -0.000000 -0.092024
  1O   2pz        0.001044 -0.027624  0.031882 -0.018171 -0.000000 -0.170497
  1O   2px        0.000000  0.000000 -0.000000  0.000000 -0.199966  0.000000
  1O   2py        0.002037 -0.062513  0.050642 -0.013619 -0.000000  0.025211
  2O   1s        -0.000106 -0.100237 -0.165037  0.113038 -0.000000 -0.074261
  2O   2s         0.000208  0.220576  0.366632 -0.267727  0.000000  0.175371
  2O   1pz       -0.000171 -0.048346 -0.071744 -0.077631  0.000000  0.096379
  2O   1px        0.000000 -0.000000 -0.000000  0.000000 -0.281560  0.000000
  2O   1py        0.000029  0.097861  0.120651  0.107362 -0.000000 -0.368661
  2O   3s        -0.001365  0.219771  0.387984 -0.348991  0.000000  0.264977
  2O   2pz        0.000970 -0.021978 -0.043331 -0.022307  0.000000  0.020521
  2O   2px       -0.000000 -0.000000 -0.000000  0.000000 -0.167878  0.000000
  2O   2py       -0.001659  0.048874  0.068063  0.021809 -0.000000 -0.173615
                     12        13        14        15        16        17   
                  -0.78871  -0.67848  -0.65789  -0.55211  -0.48314  -0.30264
                   1.00000   1.00000   1.00000   0.00000   0.00000   0.00000
                  --------  --------  --------  --------  --------  --------
  0S   1s         0.008154 -0.000000 -0.008574  0.016346 -0.000000 -0.028941
  0S   2s        -0.040164  0.000000  0.041228 -0.081116  0.000000  0.127483
  0S   1pz        0.148011 -0.000000 -0.049875  0.094647 -0.000000  0.198287
  0S   1px        0.000000  0.010374 -0.000000 -0.000000  0.227423  0.000000
  0S   1py        0.134764 -0.000000 -0.025436 -0.014261  0.000000 -0.044060
  0S   3s         0.070497 -0.000000 -0.086045  0.158708 -0.000000 -0.368896
  0S   2pz       -0.410897  0.000000  0.138850 -0.263759  0.000000 -0.651594
  0S   2px       -0.000000 -0.029479  0.000000  0.000000 -0.678353 -0.000000
  0S   2py       -0.382862  0.000000  0.085301  0.048683 -0.000000  0.139807
  0S   4s         0.074044 -0.000000 -0.142543  0.381513  0.000000 -0.689080
  0S   3pz       -0.077340 -0.000000 -0.000124  0.035439  0.000000 -0.599462
  0S   3px       -0.000000 -0.016401  0.000000  0.000000 -0.251863 -0.000000
  0S   3py       -0.008902 -0.000000  0.147012  0.078706 -0.000000  0.103358
  1O   1s        -0.078842  0.000000  0.003210  0.003777  0.000000 -0.039512
  1O   2s         0.186434 -0.000000  0.003612  0.011046 -0.000000  0.083407
  1O   1pz        0.051033  0.000000 -0.466208  0.293355 -0.000000  0.054713
  1O   1px       -0.000000  0.462323  0.000000  0.000000  0.398470  0.000000
  1O   1py        0.417580 -0.000000  0.286347  0.145574 -0.000000 -0.371518
  1O   3s         0.292042  0.000000 -0.069569 -0.150107  0.000000  0.411221
  1O   2pz       -0.008295  0.000000 -0.288001  0.233757 -0.000000  0.017993
  1O   2px       -0.000000  0.319044  0.000000  0.000000  0.297295 -0.000000
  1O   2py        0.190125 -0.000000  0.201198  0.121614  0.000000 -0.381208
  2O   1s         0.025609  0.000000  0.001567 -0.003499 -0.000000 -0.057328
  2O   2s        -0.069568 -0.000000 -0.024928  0.017103 -0.000000  0.121194
  2O   1pz       -0.206146 -0.000000  0.132160  0.528787  0.000000 -0.095853
  2O   1px       -0.000000 -0.500855 -0.000000 -0.000000  0.388296  0.000000
  2O   1py       -0.006299 -0.000000  0.381000  0.107778 -0.000000  0.427569
  2O   3s        -0.068631  0.000000  0.111063 -0.040253  0.000000  0.565431
  2O   2pz       -0.132825 -0.000000  0.064744  0.393981  0.000000 -0.129956
  2O   2px       -0.000000 -0.346504 -0.000000 -0.000000  0.287740  0.000000
  2O   2py       -0.012156 -0.000000  0.273135  0.071903 -0.000000  0.449507
                     18        19        20        21        22        23   
                  -0.23176  -0.04266   0.03302   0.05060   0.08057   0.55455
                   0.00000   0.00000   0.00000   0.00000   0.00000   0.00000
                  --------  --------  --------  --------  --------  --------
  0S   1s        -0.005194 -0.066550 -0.000000 -0.002114  0.005985  0.000000
  0S   2s         0.024538  0.075935  0.000000  0.013813 -0.009163 -0.000000
  0S   1pz        0.024357 -0.006162 -0.000000 -0.250233 -0.053108 -0.000000
  0S   1px       -0.000000  0.000000 -0.243855  0.000000  0.000000  0.000261
  0S   1py        0.205565 -0.012970 -0.000000  0.048813 -0.286214  0.000000
  0S   3s        -0.062345 -1.633496 -0.000000 -0.013805  0.140617  0.000000
  0S   2pz       -0.086341  0.024922  0.000000  1.069142  0.228509  0.000000
  0S   2px        0.000000 -0.000000  1.047564 -0.000000 -0.000000 -0.007443
  0S   2py       -0.691412  0.058878  0.000000 -0.204874  1.210536 -0.000000
  0S   4s        -0.215182  2.236428  0.000000 -0.100783 -0.113910  0.000000
  0S   3pz       -0.124030  0.334275 -0.000000 -1.455233 -0.257509  0.000000
  0S   3px        0.000000  0.000000 -1.380041  0.000000  0.000000  0.000782
  0S   3py       -1.001462 -0.114672 -0.000000  0.300788 -1.487618  0.000000
  1O   1s        -0.062051  0.020344 -0.000000 -0.003071  0.000842  0.000000
  1O   2s         0.118608 -0.026968 -0.000000 -0.006929 -0.044238  0.000000
  1O   1pz       -0.289117 -0.109664  0.000000  0.089536  0.128720  0.000000
  1O   1px       -0.000000 -0.000000  0.068145 -0.000000 -0.000000 -0.657006
  1O   1py       -0.222612 -0.099896  0.000000  0.042258  0.274038 -0.000000
  1O   3s         0.755942 -0.457464  0.000000  0.170127  0.419908 -0.000000
  1O   2pz       -0.326553 -0.010059  0.000000  0.140414  0.055254 -0.000000
  1O   2px       -0.000000 -0.000000  0.125420 -0.000000 -0.000000  0.763356
  1O   2py       -0.321796  0.092389  0.000000 -0.041999  0.173020  0.000000
  2O   1s         0.040119  0.024434  0.000000 -0.006330  0.001147  0.000000
  2O   2s        -0.075067 -0.032083  0.000000 -0.015442  0.028865 -0.000000
  2O   1pz        0.305330 -0.108378  0.000000  0.130604 -0.069079  0.000000
  2O   1px       -0.000000 -0.000000  0.077781 -0.000000  0.000000  0.672077
  2O   1py       -0.061101  0.101416 -0.000000 -0.119567  0.187659  0.000000
  2O   3s        -0.480547 -0.532525 -0.000000  0.367961 -0.322671 -0.000000
  2O   2pz        0.330703  0.022757  0.000000  0.120280  0.027500 -0.000000
  2O   2px       -0.000000 -0.000000  0.125025 -0.000000 -0.000000 -0.773411
  2O   2py       -0.126883 -0.113887  0.000000  0.026436  0.111109 -0.000000
                     24        25        26        27        28        29   
                   0.56315   0.64411   0.64418   0.65320   0.72435   1.06726
                   0.00000   0.00000   0.00000   0.00000   0.00000   0.00000
                  --------  --------  --------  --------  --------  --------
  0S   1s         0.005791  0.000000  0.000101  0.017655 -0.000501 -0.001361
  0S   2s        -0.002326 -0.000000 -0.004667  0.030881 -0.007769  0.015847
  0S   1pz       -0.022432 -0.000000 -0.002233 -0.029136 -0.000963  0.010433
  0S   1px       -0.000000  0.000630 -0.000000 -0.000000 -0.000000 -0.000000
  0S   1py        0.002272  0.000001  0.042772  0.003161  0.031765 -0.058837
  0S   3s         0.175692 -0.000000 -0.012050  0.670574 -0.043135  0.005761
  0S   2pz        0.154599  0.000000  0.012806  0.299841 -0.008348 -0.063520
  0S   2px        0.000000 -0.005618  0.000000  0.000000  0.000000  0.000000
  0S   2py       -0.012524 -0.000005 -0.375409  0.007567 -0.341345  0.568014
  0S   4s         0.279993 -0.000000 -0.023573  0.077987 -0.010562 -0.198973
  0S   3pz        0.465872 -0.000000 -0.023571 -0.223880 -0.014528 -0.133970
  0S   3px       -0.000000 -0.558944  0.000007  0.000000 -0.000000  0.000000
  0S   3py        0.008237 -0.000001 -0.082112  0.033925  0.456616  0.916548
  1O   1s         0.025755 -0.000000 -0.039479  0.024801 -0.006659 -0.038224
  1O   2s        -0.165119  0.000004  0.346227 -0.124918  0.017011  0.991068
  1O   1pz        0.432674  0.000006  0.515723 -0.537914 -0.256102 -0.217313
  1O   1px        0.000000 -0.662843  0.000008  0.000000  0.000000  0.000000
  1O   1py       -0.468932  0.000003  0.229796 -0.346561  0.611887 -0.106304
  1O   3s        -0.097089 -0.000002 -0.154370 -0.036733 -0.069435 -1.553371
  1O   2pz       -0.499572 -0.000009 -0.730717  0.789376  0.301194  0.594621
  1O   2px       -0.000000  0.923444 -0.000011 -0.000000  0.000000 -0.000000
  1O   2py        0.708314 -0.000005 -0.420681  0.614461 -0.914151  0.368373
  2O   1s         0.029038  0.000000  0.039650  0.022729  0.003429  0.050998
  2O   2s        -0.200186 -0.000005 -0.372547 -0.131630 -0.007348 -1.313969
  2O   1pz        0.377307 -0.000007 -0.595808 -0.507078  0.269013  0.243561
  2O   1px       -0.000000 -0.651591  0.000008  0.000000 -0.000000  0.000000
  2O   1py        0.512452  0.000002  0.177624  0.355815  0.597084 -0.159674
  2O   3s        -0.063128  0.000003  0.223436  0.026816  0.093288  2.049190
  2O   2pz       -0.391354  0.000010  0.806189  0.724454 -0.316363 -0.650616
  2O   2px        0.000000  0.897270 -0.000011 -0.000000  0.000000 -0.000000
  2O   2py       -0.755597 -0.000004 -0.336199 -0.600166 -0.851691  0.541629
                     30   
                   1.13034
                   0.00000
                  --------
  0S   1s        -0.010776
  0S   2s         0.039798
  0S   1pz        0.043983
  0S   1px        0.000000
  0S   1py        0.006285
  0S   3s        -0.264855
  0S   2pz       -0.381261
  0S   2px       -0.000000
  0S   2py       -0.107942
  0S   4s        -1.662736
  0S   3pz       -0.823676
  0S   3px        0.000000
  0S   3py       -0.159184
  1O   1s         0.044446
  1O   2s        -1.407990
  1O   1pz        0.035275
  1O   1px       -0.000000
  1O   1py        0.200217
  1O   3s         2.408530
  1O   2pz       -0.217516
  1O   2px       -0.000000
  1O   2py       -0.864647
  2O   1s         0.033724
  2O   2s        -1.067070
  2O   1pz       -0.000799
  2O   1px        0.000000
  2O   1py       -0.172889
  2O   3s         1.816885
  2O   2pz       -0.104450
  2O   2px       -0.000000
  2O   2py        0.708189



                    ********************************
                    * MULLIKEN POPULATION ANALYSIS *
                    ********************************

--------------------------------------------
MULLIKEN ATOMIC CHARGES AND SPIN POPULATIONS
--------------------------------------------
   0 S :    1.337232    0.092561
   1 O :   -0.220725    0.078907
   2 O :   -0.116507    0.828532
Sum of atomic charges         :    1.0000000
Sum of atomic spin populations:    1.0000000

-----------------------------------------------------
MULLIKEN REDUCED ORBITAL CHARGES AND SPIN POPULATIONS
-----------------------------------------------------
CHARGE
  0 S s       :     5.782132  s :     5.782132
      pz      :     3.064695  p :     8.880636
      px      :     3.042019
      py      :     2.773922

  1 O s       :     4.039089  s :     4.039089
      pz      :     1.556130  p :     4.181636
      px      :     1.359448
      py      :     1.266058

  2 O s       :     4.029363  s :     4.029363
      pz      :     1.114210  p :     4.087145
      px      :     1.598532
      py      :     1.374402


SPIN
  0 S s       :     0.094009  s :     0.094009
      pz      :     0.053234  p :    -0.001448
      px      :     0.004858
      py      :    -0.059540

  1 O s       :    -0.014426  s :    -0.014426
      pz      :     0.183497  p :     0.093334
      px      :    -0.112733
      py      :     0.022570

  2 O s       :    -0.000672  s :    -0.000672
      pz      :     0.680972  p :     0.829204
      px      :     0.107875
      py      :     0.040357



                     *******************************
                     * LOEWDIN POPULATION ANALYSIS *
                     *******************************

-------------------------------------------
LOEWDIN ATOMIC CHARGES AND SPIN POPULATIONS
-------------------------------------------
   0 S :    1.308993    0.096245
   1 O :   -0.212494    0.080482
   2 O :   -0.096499    0.823273

----------------------------------------------------
LOEWDIN REDUCED ORBITAL CHARGES AND SPIN POPULATIONS
----------------------------------------------------
CHARGE
  0 S s       :     5.628091  s :     5.628091
      pz      :     3.146300  p :     9.062916
      px      :     3.037886
      py      :     2.878729

  1 O s       :     3.829045  s :     3.829045
      pz      :     1.610892  p :     4.383449
      px      :     1.363050
      py      :     1.409508

  2 O s       :     3.846986  s :     3.846986
      pz      :     1.170107  p :     4.249513
      px      :     1.599064
      py      :     1.480342


SPIN
  0 S s       :     0.077046  s :     0.077046
      pz      :     0.060350  p :     0.019198
      px      :     0.004577
      py      :    -0.045728

  1 O s       :    -0.005252  s :    -0.005252
      pz      :     0.176124  p :     0.085735
      px      :    -0.111482
      py      :     0.021092

  2 O s       :     0.004561  s :     0.004561
      pz      :     0.667639  p :     0.818712
      px      :     0.106905
      py      :     0.044168



                      *****************************
                      * MAYER POPULATION ANALYSIS *
                      *****************************

  NA   - Mulliken gross atomic population
  ZA   - Total nuclear charge
  QA   - Mulliken gross atomic charge
  VA   - Mayer's total valence
  BVA  - Mayer's bonded valence
  FA   - Mayer's free valence

  ATOM       NA         ZA         QA         VA         BVA        FA
  0 S     14.6628    16.0000     1.3372     2.9665     2.9334     0.0330
  1 O      8.2207     8.0000    -0.2207     2.1076     2.0496     0.0579
  2 O      8.1165     8.0000    -0.1165     2.2443     1.7359     0.5084

  Mayer bond orders larger than 0.100000
B(  0-S ,  1-O ) :   1.6236 B(  0-S ,  2-O ) :   1.3098 B(  1-O ,  2-O ) :   0.4260 


-------
TIMINGS
-------

Total SCF time: 0 days 0 hours 0 min 5 sec 

Total time                  ....       5.901 sec
Sum of individual times     ....       5.811 sec  ( 98.5%)

SCF preparation             ....       0.091 sec  (  1.5%)
Fock matrix formation       ....       5.672 sec  ( 96.1%)
  Startup                   ....       0.004 sec  (  0.1% of F)
  Split-RI-J                ....       0.364 sec  (  6.4% of F)
  Chain of spheres X        ....       3.567 sec  ( 62.9% of F)
  XC integration            ....       1.703 sec  ( 30.0% of F)
    XC Preparation          ....       0.000 sec  (  0.0% of XC)
    Basis function eval.    ....       0.603 sec  ( 35.4% of XC)
    Density eval.           ....       0.245 sec  ( 14.4% of XC)
    XC-Functional eval.     ....       0.501 sec  ( 29.4% of XC)
    XC-Potential eval.      ....       0.186 sec  ( 10.9% of XC)
Diagonalization             ....       0.000 sec  (  0.0%)
Density matrix formation    ....       0.015 sec  (  0.2%)
Total Energy calculation    ....       0.002 sec  (  0.0%)
Population analysis         ....       0.002 sec  (  0.0%)
Orbital Transformation      ....       0.003 sec  (  0.1%)
Orbital Orthonormalization  ....       0.000 sec  (  0.0%)
DIIS solution               ....       0.013 sec  (  0.2%)
SOSCF solution              ....       0.013 sec  (  0.2%)
Finished LeanSCF after   5.9 sec

Maximum memory used throughout the entire LEANSCF-calculation: 6.0 MB

------------------------------------------------------------------------------
                         ORCA PROPERTY INTEGRAL CALCULATIONS
------------------------------------------------------------------------------

GBWName                                   ... ORCA.gbw
Number of atoms                           ...      3
Number of basis functions                 ...     31
Max core memory                           ...   1000 MB

Dipole integrals                          ... YES
Quadrupole integrals                      ...  NO
Linear momentum integrals                 ... YES
Angular momentum integrals                ... YES
Higher moments length integrals           ...  NO
Higher moments velocity integrals         ...  NO
Kinetic energy integrals                  ...  NO
GIAO right hand sides                     ...  NO
GIAO dipole derivative integrals          ...  NO
SOC integrals                             ...  NO
EPR diamagnetic integrals (GIAO)          ...  NO
EPR gauge integrals                       ...  NO
Field gradient integrals                  ...  NO (   0 nuclei)
Spin-dipole/Fermi contact integrals       ...  NO (   0 nuclei)
Contact density integrals                 ...  NO (   0 nuclei)
Nucleus-orbit integrals                   ...  NO (   0 nuclei)
Geometric perturbations                   ...  NO (   3 nuclei)

Note: picture-change corrections are only included
      for the integrals annotated with "YES(ZORA)"!

Choice of electric origin   ... Center of mass
Position of electric origin ... (  0.0000, -0.0000,  0.7552) 
Choice of magnetic origin   ... GIAO
Position of magnetic origin ... (  0.0000,  0.0000,  0.0000) 

Calculating integrals                     ... Electric Dipole (Length)     done (  0.0 sec)
Calculating integrals                     ... Linear Momentum              done (  0.0 sec)
Calculating integrals                     ... Angular Momentum  (ElOri)    done (  0.0 sec)

Property integrals calculated in   0.0 sec

Maximum memory used throughout the entire PROPINT-calculation: 5.0 MB
------------------------------------------------------------------------------
                        ORCA TD-DFT/TDA CALCULATION
------------------------------------------------------------------------------

Input orbitals are from        ... ORCA.gbw
CI-vector output               ... ORCA.cis
Solver                         ... FN-2001
Tamm-Dancoff approximation     ... operative
CIS-Integral strategy          ... AO-integrals
Integral handling              ... AO integral Direct
Max. core memory used          ... 1000 MB
Reference state                ... UHF
Follow IRoot                   ... off
Number of operators            ... 2
Orbital ranges used for CIS calculation:
 Operator 0:  Orbitals   7... 15  to  16... 30
 Operator 1:  Orbitals   7... 14  to  15... 30
XAS localization array:
 Operator 0:  Orbitals  -1... -1
 Operator 1:  Orbitals  -1... -1

-------------------
XC-INTEGRATION GRID
-------------------

General Integration Accuracy     IntAcc      ... 3.467
Radial Grid Type                 RadialGrid  ... OptM3 with GC (2021)
Angular Grid (max. ang.)         AngularGrid ... 1 (Lebedev-50)
Angular grid pruning method      GridPruning ... 4 (adaptive)
Weight generation scheme         WeightScheme... mBecke (2022)
Basis function cutoff            BFCut       ... 1.0000e-11
Integration weight cutoff        WCut        ... 1.0000e-14
Partially contracted basis set               ... off
Rotationally invariant grid construction     ... off
Angular grids for H and He will be reduced by one unit

Total number of grid points                  ...     3885
Total number of batches                      ...       62
Average number of points per batch           ...       62
Average number of grid points per atom       ...     1295

---------------------
COSX-INTEGRATION GRID
---------------------

General Integration Accuracy     IntAcc      ... 3.067
Radial Grid Type                 RadialGrid  ... OptM3 with GC (2021)
Angular Grid (max. ang.)         AngularGrid ... 1 (Lebedev-50)
Angular grid pruning method      GridPruning ... 4 (adaptive)
Weight generation scheme         WeightScheme... mBecke (2022)
Basis function cutoff            BFCut       ... 1.0000e-11
Integration weight cutoff        WCut        ... 1.0000e-14
Partially contracted basis set               ... on
Rotationally invariant grid construction     ... off
Angular grids for H and He will be reduced by one unit

[...]
      px      :     1.059807
      py      :     0.013027
  2 O s       :    -0.009645  s :    -0.009645
      pz      :     0.431927  p :    -0.416467
      px      :    -0.699150
      py      :    -0.149244


                     *******************************
                     * LOEWDIN POPULATION ANALYSIS *
                     *******************************

-----------------------------------------
LOEWDIN ATOMIC CHARGES AND SPIN DENSITIES
-----------------------------------------
   0 S :    1.191072   -0.165461
   1 O :   -0.079262    1.602700
   2 O :   -0.111810   -0.437238

--------------------------------------------------
LOEWDIN REDUCED ORBITAL CHARGES AND SPIN DENSITIES
--------------------------------------------------
CHARGE
  0 S s       :     5.563445  s :     5.563445
      pz      :     3.024763  p :     9.245483
      px      :     3.353419
      py      :     2.867300
  1 O s       :     3.825952  s :     3.825952
      pz      :     1.331735  p :     4.253310
      px      :     1.377256
      py      :     1.544319
  2 O s       :     3.844191  s :     3.844191
      pz      :     1.406965  p :     4.267619
      px      :     1.269324
      py      :     1.591330

SPIN
  0 S s       :     0.120491  s :     0.120491
      pz      :     0.156304  p :    -0.285952
      px      :    -0.344559
      py      :    -0.097698
  1 O s       :     0.007308  s :     0.007308
      pz      :     0.544921  p :     1.595391
      px      :     1.041755
      py      :     0.008715
  2 O s       :    -0.009376  s :    -0.009376
      pz      :     0.413335  p :    -0.427862
      px      :    -0.697197
      py      :    -0.144001


                      *****************************
                      * MAYER POPULATION ANALYSIS *
                      *****************************

  NA   - Mulliken gross atomic population
  ZA   - Total nuclear charge
  QA   - Mulliken gross atomic charge
  VA   - Mayer's total valence
  BVA  - Mayer's bonded valence
  FA   - Mayer's free valence

  ATOM       NA         ZA         QA         VA         BVA        FA
  0 S     14.7658    16.0000     1.2342     2.9634     3.4237    -0.4603
  1 O      8.0986     8.0000    -0.0986     2.2467     1.9581     0.2886
  2 O      8.1355     8.0000    -0.1355     2.0670     2.4764    -0.4094

  Mayer bond orders larger than 0.100000
B(  0-S ,  1-O ) :   1.4527 B(  0-S ,  2-O ) :   1.9710 B(  1-O ,  2-O ) :   0.5054 



                            ------------------
                               GROUND STATE 
                            ------------------

Nuc. rep. gradient        (SHARK) ... done (  0.0 sec)
HCore & Overlap gradient  (SHARK) ... done (  0.0 sec)
Split-RIJ-J gradient      (SHARK) ... done (  0.1 sec)
COSX-gradient                     ... done (  1.2 sec)
XC gradient                       ... done (  0.2 sec)
Dispersion correction             ... done (  0.0 sec)

-------------------
DISPERSION GRADIENT
-------------------

   1   S   :    0.000000000    0.000000860   -0.000008285
   2   O   :    0.000000000    0.000092670    0.000000297
   3   O   :    0.000000000   -0.000093530    0.000007988

Difference to translation invariance:
           :    0.0000000000    0.0000000000    0.0000000000

Difference to rotation invariance:
           :   -0.0000000000    0.0000000000    0.0000000000

Norm of the Dispersion gradient    ...    0.0001321704
RMS gradient                       ...    0.0000440568
MAX gradient                       ...    0.0000935304

-------
TIMINGS
-------

Total TD-DFT gradient time  ....       14.197 sec

Fock matrix formation       ....       3.141 sec  ( 22.1%)
  Coulomb formation         ....       2.402 sec  ( 76.5% of F)
  XC integration            ....       0.739 sec  ( 23.5% of F)
Z-vector equation           ....       4.225 sec  ( 29.8%)
Densities                   ....       0.000 sec  (  0.0%)
One electron gradient       ....       0.020 sec  (  0.1%)
Two electron gradient       ....       0.000 sec  (  0.0%)
RI-J Coulomb gradient       ....       0.555 sec  (  3.9%)
COSX gradient               ....       1.136 sec  (  8.0%)
XC gradient                 ....       2.901 sec  ( 20.4%)
ZORA gradient               ....       0.000 sec  (  0.0%)

Maximum memory used throughout the entire CIS-calculation: 29.2 MB
=> NOW LEAVING ORCA_CIS


-------------------------------------------------------------------------------
                          DFT DISPERSION CORRECTION                            
                                                                               
                              DFTD3 V3.1  Rev 1                                
                          USING Becke-Johnson damping                          
-------------------------------------------------------------------------------
The B3LYP functional is recognized
Active option DFTDOPT                   ...         4   

molecular C6(AA) [au] = 331.243651 


            DFT-D V3
 parameters
 s6 scaling factor         :     1.0000 
 a1 scaling factor         :     0.3981 
 s8 scaling factor         :     1.9889 
 a2 scaling factor         :     4.4211 
 ad hoc parameters k1-k3   :    16.0000     1.3333    -4.0000 

 Edisp/kcal,au: -1.579007628924  -0.002516308559 
 E6   /kcal   :  -0.666166783 
 E8   /kcal   :  -0.912840846 
 % E8         :  57.811047193 

-------------------------   ----------------
Dispersion correction           -0.002516309
-------------------------   ----------------


-------------------------   --------------------
FINAL SINGLE POINT ENERGY      -549.691772435806
-------------------------   --------------------


------------------------------------------------------------------------------
                              ORCA PROPERTY CALCULATIONS
------------------------------------------------------------------------------

GBWName                                 ... ORCA.gbw
Number of atoms                         ...      3
Number of basis functions               ...     31
Max core memory                         ...   1000 MB

Electric properties:
Dipole moment                           ... YES
Quadrupole moment                       ...  NO
Static polarizability (Dipole/Dipole)   ...  NO
Static polarizability (Dipole/Quad.)    ...  NO
Static polarizability (Quad./Quad.)     ...  NO
Static polarizability (Velocity)        ...  NO

Atomic electric properties:
Dipole moment                           ...  NO
Quadrupole moment                       ...  NO
Static polarizability                   ...  NO

Choice of electric origin               ... Center of mass
Position of electric origin             ...     0.000000    -0.000000     0.755159

General magnetic properties:
Magnetizability                         ...  NO

EPR properties:
g-Tensor (aka g-matrix)                 ...  NO
Zero-Field splitting spin-orbit         ...  NO
Zero-field splitting spin-spin          ...  NO
Hyperfine couplings                     ...  NO (   0 nuclei)
Quadrupole couplings                    ...  NO (   0 nuclei)
Contact density                         ...  NO (   0 nuclei)

NMR properties:
Chemical shifts                         ...  NO (   0 nuclei)
Spin-rotation constants                 ...  NO (   0 nuclei)
Spin-spin couplings                     ...  NO (   0 nuclei,    0 pairs)

Choice of magnetic origin               ... GIAO
Position of magnetic origin             ...     0.000000     0.000000     0.000000

Properties with geometric perturbations:
SCF Hessian                             ...  NO
IR spectrum                             ...  NO
VCD spectrum                            ...  NO
X-ray spectroscopy properties:
SCF XES/XAS/RIXS spectra                ...  NO

Note: picture-change corrections are only included
      for the properties annotated with "YES(ZORA)"!


-------------
DIPOLE MOMENT
-------------

Method             : SCF
Type of density    : Electron Density
Multiplicity       :   2
Irrep              :   0
Energy             :  -549.7231159636870643 Eh
Relativity type    : 
Basis              : AO
                                X                 Y                 Z
Electronic contribution:      0.000000007      -0.164750215      -0.678531065
Nuclear contribution   :      0.000000000       0.000000000       0.023411387
                        -----------------------------------------
Total Dipole Moment    :      0.000000007      -0.164750215      -0.655119678
                        -----------------------------------------
Magnitude (a.u.)       :      0.675517894
Magnitude (Debye)      :      1.717030032



--------------------
Rotational spectrum 
--------------------
 
Rotational constants in cm-1:             1.647766             0.311169             0.261741 
Rotational constants in MHz :         49398.787065          9328.599358          7846.790422 

Dipole components along the rotational axes: 
x,y,z [a.u.] :     0.133524    -0.662190     0.000000 
x,y,z [Debye]:     0.339391    -1.683154     0.000000 

 

-------------
DIPOLE MOMENT
-------------

Method             : TDA/CIS
Type of density    : Electron Density
Level              : Relaxed density
State              :   1
Multiplicity       :   2
Irrep              :   0
Energy             :     0.0000000000000000 Eh
Relativity type    : 
Basis              : AO
                                X                 Y                 Z
Electronic contribution:      0.000000622       0.295690522      -0.841859694
Nuclear contribution   :      0.000000000       0.000000000       0.023411387
                        -----------------------------------------
Total Dipole Moment    :      0.000000622       0.295690522      -0.818448307
                        -----------------------------------------
Magnitude (a.u.)       :      0.870224406
Magnitude (Debye)      :      2.211934654



--------------------
Rotational spectrum 
--------------------
 
Rotational constants in cm-1:             1.647766             0.311169             0.261741 
Rotational constants in MHz :         49398.787065          9328.599358          7846.790422 

Dipole components along the rotational axes: 
x,y,z [a.u.] :    -0.334139    -0.803518     0.000001 
x,y,z [Debye]:    -0.849313    -2.042382     0.000002 

 

-------------
DIPOLE MOMENT
-------------

Method             : TDA/CIS
Type of density    : Electron Density
Level              : Relaxed density
State              :   2
Multiplicity       :   2
Irrep              :   0
Energy             :     0.0000000000000000 Eh
Relativity type    : 
Basis              : AO
                                X                 Y                 Z
Electronic contribution:     -0.000000630       0.056463367      -0.691620431
Nuclear contribution   :      0.000000000       0.000000000       0.023411387
                        -----------------------------------------
Total Dipole Moment    :     -0.000000630       0.056463367      -0.668209044
                        -----------------------------------------
Magnitude (a.u.)       :      0.670590365
Magnitude (Debye)      :      1.704505249



--------------------
Rotational spectrum 
--------------------
 
Rotational constants in cm-1:             1.647766             0.311169             0.261741 
Rotational constants in MHz :         49398.787065          9328.599358          7846.790422 

Dipole components along the rotational axes: 
x,y,z [a.u.] :    -0.088061    -0.664783    -0.000001 
x,y,z [Debye]:    -0.223834    -1.689744    -0.000002 

 

-------------
DIPOLE MOMENT
-------------

Method             : TDA/CIS
Type of density    : Electron Density
Level              : Relaxed density
State              :   3
Multiplicity       :   2
Irrep              :   0
Energy             :     0.0000000000000000 Eh
Relativity type    : 
Basis              : AO
                                X                 Y                 Z
Electronic contribution:     -0.000000002      -0.260641852      -0.425010958
Nuclear contribution   :      0.000000000       0.000000000       0.023411387
                        -----------------------------------------
Total Dipole Moment    :     -0.000000002      -0.260641852      -0.401599570
                        -----------------------------------------
Magnitude (a.u.)       :      0.478765485
Magnitude (Debye)      :      1.216925152



--------------------
Rotational spectrum 
--------------------
 
Rotational constants in cm-1:             1.647766             0.311169             0.261741 
Rotational constants in MHz :         49398.787065          9328.599358          7846.790422 

Dipole components along the rotational axes: 
x,y,z [a.u.] :     0.241320    -0.413498    -0.000000 
x,y,z [Debye]:     0.613387    -1.051029    -0.000000 

 

-------------
DIPOLE MOMENT
-------------

Method             : TDA/CIS
Type of density    : Electron Density
Level              : Relaxed density
State              :   4
Multiplicity       :   2
Irrep              :   0
Energy             :     0.0000000000000000 Eh
Relativity type    : 
Basis              : AO
                                X                 Y                 Z
Electronic contribution:     -0.000000054       0.109741197      -0.486494592
Nuclear contribution   :      0.000000000       0.000000000       0.023411387
                        -----------------------------------------
Total Dipole Moment    :     -0.000000054       0.109741197      -0.463083204
                        -----------------------------------------
Magnitude (a.u.)       :      0.475908799
Magnitude (Debye)      :      1.209664033



--------------------
Rotational spectrum 
--------------------
 
Rotational constants in cm-1:             1.647766             0.311169             0.261741 
Rotational constants in MHz :         49398.787065          9328.599358          7846.790422 

Dipole components along the rotational axes: 
x,y,z [a.u.] :    -0.131560    -0.457363    -0.000000 
x,y,z [Debye]:    -0.334399    -1.162525    -0.000000 

 

Dipole moment calculation done in   0.0 sec 

Maximum memory used throughout the entire PROP-calculation: 4.3 MB

--------------------------------
SUGGESTED CITATIONS FOR THIS RUN
--------------------------------

Below you find a list of papers that are relevant to this ORCA run
We neither can nor want to force you to cite these papers, but we appreciate if you do
You receive ORCA, which is the product of decades of hard work by many enthusiastic individuals, for free
The only thing we kindly ask in return is that you cite our papers,
We deeply appreciate it, if you show your appreciation for ORCA by not just citing the generic ORCA reference.

Please note that relegating all ORCA citations to the supporting information does *not* help us.
SI sections are not indexed - citations you put there will not count into any citation statistics
But we need these citations in order to attract the funding resources that allow us to do what we are doing

Therefore, if you are a happy ORCA user, please consider citing a few of the papers listed below in the main body of your paper

In addition to the list printed below, the program has created the file ORCA.bibtex that contains the list in bibtex format
You can import this file easily into all common literature databanks and citation aid programs


List of essential papers. We consider these as the minimum necessary citations

  1. Neese,F.
     Software update: the ORCA program system, version 5.0
     WIRES Comput. Molec. Sci., 2022 12(1)e1606
     doi.org/10.1002/wcms.1606

List of papers to cite with high priority. The work reported in these papers was absolutely
necessary for this run to complete.
Our perspective: the developers of density functionals and basis sets usually get cited in chemistry papers
Good! But without the algorithms to do something with them, the functionals or basis sets would not do anything.
Hence, in our opinion, the algorithm design and method developments papers are equally worthy of getting cited

  1. Neese,F.; Olbrich,G.
     Efficient use of the resolution of the identity approximation in time-dependent density functional calculations with hybrid density functionals
     Chem. Phys. Lett., 2002 362 170-178
     doi.org/10.1016/s0009-2614(02)01053-9
  2. Neese,F.
     An improvement of the resolution of the identity approximation for the formation of the Coulomb matrix
     J. Comp. Chem., 2003 24(14)1740-1747
     doi.org/10.1002/jcc.10318
  3. Neese,F.; Wennmohs,F.; Hansen,A.; Becker,U.
     Efficient, approximate and parallel Hartree-Fock and hybrid DFT calculations. A 'chain-of-spheres' algorithm for the Hartree-Fock exchange
     Chem. Phys., 2009 356(1-3)98-109
     doi.org/10.1016/j.chemphys.2008.10.036
  4. Petrenko,T.; Kossmann,S.; Neese,F.
     Efficient time-dependent density functional theory approximations for hybrid density functionals: Analytical gradients and parallelization
     J. Chem. Phys., 2011 134 054116
     doi.org/10.1063/1.3533441
  5. Helmich-Paris,B.; de Souza,B.; Neese,F.; Izsák,R.
     An improved chain of spheres for exchange algorithm
     J. Chem. Phys., 2021 155 104109
     doi.org/doi: 10.1063/5.0058766.
  6. Neese,F.
     The SHARK Integral Generation and Digestion System
     J. Comp. Chem., 2022  1-16
     doi.org/10.1002/jcc.26942
  7. Grimme,S.; Antony,J.; Ehrlich,S.; Krieg,H.
     A consistent and accurate ab initio parametrization of density functional dispersion correction (DFT-D) for the 94 elements H-Pu
     J. Chem. Phys., 2010 132 154104-XXXX
     doi.org/10.1063/1.3382344
  8. Grimme,S.; Ehrlich,S.; Goerigk,L.
     Effect of the damping function in dispersion corrected density functional theory
     J. Comput. Chem., 2011 32(7)1456-1465
     doi.org/10.1002/jcc.21759

List of suggested additional citations. These are papers that are important in the 'surrounding' of 
of this run, or papers that preceded the highly important papers. If you like your results we are grateful for a citation.

  1. Izsak,R.; Neese,F.
     An overlap fitted chain of spheres exchange method
     J. Chem. Phys., 2011 135 144105
     doi.org/10.1063/1.3646921
  2. Izsak,R.; Hansen,A.; Neese,F.
     The resolution of identity and chain of spheres approximations for the LPNO-CCSD singles Fock term
     Molec. Phys., 2012 110 2413-2417
     doi.org/10.1080/00268976.2012.687466
  3. Neese,F.
     The ORCA program system
     WIRES Comput. Molec. Sci., 2012 2(1)73-78
     doi.org/10.1002/wcms.81
  4. Izsak,R.; Neese,F.; Klopper,W.
     Robust fitting techniques in the chain of spheres approximation to the Fock exchange: The role of the complementary space
     J. Chem. Phys., 2013 139 
     doi.org/10.1063/1.4819264
  5. Neese,F.
     Software update: the ORCA program system, version 4.0
     WIRES Comput. Molec. Sci., 2018 8(1)1-6
     doi.org/10.1002/wcms.1327
  6. Neese,F.; Wennmohs,F.; Becker,U.; Riplinger,C.
     The ORCA quantum chemistry program package
     J. Chem. Phys., 2020 152 Art. No. L224108
     doi.org/10.1063/5.0004608

List of optional additional citations

  1. Neese,F.
     Approximate second-order SCF convergence for spin unrestricted wavefunctions
     Chem. Phys. Lett., 2000 325(1-3)93-98
     doi.org/10.1016/s0009-2614(00)00662-x

Timings for individual modules:

Sum of individual times          ...       22.356 sec (=   0.373 min)
Startup calculation              ...        0.391 sec (=   0.007 min)   1.7 %
Relativistic integrals           ...        0.055 sec (=   0.001 min)   0.2 %
SCF iterations                   ...        6.128 sec (=   0.102 min)  27.4 %
Property integrals               ...        0.064 sec (=   0.001 min)   0.3 %
Property calculations            ...        0.121 sec (=   0.002 min)   0.5 %
CIS module                       ...       15.597 sec (=   0.260 min)  69.8 %
                             ****ORCA TERMINATED NORMALLY****
TOTAL RUN TIME: 0 days 0 hours 0 minutes 22 seconds 545 msec
