
                                 *****************
                                 * O   R   C   A *
                                 *****************

                                            #,                                       
                                            ###                                      
                                            ####                                     
                                            #####                                    
                                            ######                                   
                                           ########,                                 
                                     ,,################,,,,,                         
                               ,,#################################,,                 
                          ,,##########################################,,             
                       ,#########################################, ''#####,          
                    ,#############################################,,   '####,        
                  ,##################################################,,,,####,       
                ,###########''''           ''''###############################       
              ,#####''   ,,,,##########,,,,          '''####'''          '####       
            ,##' ,,,,###########################,,,                        '##       
           ' ,,###''''                  '''############,,,                           
         ,,##''                                '''############,,,,        ,,,,,,###''
      ,#''                                            '''#######################'''  
     '                                                          ''''####''''         
             ,#######,   #######,   ,#######,      ##                                
            ,#'     '#,  ##    ##  ,#'     '#,    #''#        ######   ,####,        
            ##       ##  ##   ,#'  ##            #'  '#       #        #'  '#        
            ##       ##  #######   ##           ,######,      #####,   #    #        
            '#,     ,#'  ##    ##  '#,     ,#' ,#      #,         ##   #,  ,#        
             '#######'   ##     ##  '#######'  #'      '#     #####' # '####'        



                  #######################################################
                  #                        -***-                        #
                  #          Department of theory and spectroscopy      #
                  #    Directorship and core code : Frank Neese         #
                  #        Max Planck Institute fuer Kohlenforschung    #
                  #                Kaiser Wilhelm Platz 1               #
                  #                 D-45470 Muelheim/Ruhr               #
                  #                      Germany                        #
                  #                                                     #
                  #                  All rights reserved                #
                  #                        -***-                        #
                  #######################################################


                         Program Version 5.0.4 -  RELEASE  -


 With contributions from (in alphabetic order):
   Daniel Aravena         : Magnetic Suceptibility
   Michael Atanasov       : Ab Initio Ligand Field Theory (pilot matlab implementation)
   Alexander A. Auer      : GIAO ZORA, VPT2 properties, NMR spectrum
   Ute Becker             : Parallelization
   Giovanni Bistoni       : ED, misc. LED, open-shell LED, HFLD
   Martin Brehm           : Molecular dynamics
   Dmytro Bykov           : SCF Hessian
   Vijay G. Chilkuri      : MRCI spin determinant printing, contributions to CSF-ICE
   Dipayan Datta          : RHF DLPNO-CCSD density
   Achintya Kumar Dutta   : EOM-CC, STEOM-CC
   Dmitry Ganyushin       : Spin-Orbit,Spin-Spin,Magnetic field MRCI
   Miquel Garcia          : C-PCM and meta-GGA Hessian, CC/C-PCM, Gaussian charge scheme
   Yang Guo               : DLPNO-NEVPT2, F12-NEVPT2, CIM, IAO-localization
   Andreas Hansen         : Spin unrestricted coupled pair/coupled cluster methods
   Benjamin Helmich-Paris : MC-RPA, TRAH-SCF, COSX integrals
   Lee Huntington         : MR-EOM, pCC
   Robert Izsak           : Overlap fitted RIJCOSX, COSX-SCS-MP3, EOM
   Marcus Kettner         : VPT2
   Christian Kollmar      : KDIIS, OOCD, Brueckner-CCSD(T), CCSD density, CASPT2, CASPT2-K
   Simone Kossmann        : Meta GGA functionals, TD-DFT gradient, OOMP2, MP2 Hessian
   Martin Krupicka        : Initial AUTO-CI
   Lucas Lang             : DCDCAS
   Marvin Lechner         : AUTO-CI (C++ implementation), FIC-MRCC
   Dagmar Lenk            : GEPOL surface, SMD
   Dimitrios Liakos       : Extrapolation schemes; Compound Job, initial MDCI parallelization
   Dimitrios Manganas     : Further ROCIS development; embedding schemes
   Dimitrios Pantazis     : SARC Basis sets
   Anastasios Papadopoulos: AUTO-CI, single reference methods and gradients
   Taras Petrenko         : DFT Hessian,TD-DFT gradient, ASA, ECA, R-Raman, ABS, FL, XAS/XES, NRVS
   Peter Pinski           : DLPNO-MP2, DLPNO-MP2 Gradient
   Christoph Reimann      : Effective Core Potentials
   Marius Retegan         : Local ZFS, SOC
   Christoph Riplinger    : Optimizer, TS searches, QM/MM, DLPNO-CCSD(T), (RO)-DLPNO pert. Triples
   Tobias Risthaus        : Range-separated hybrids, TD-DFT gradient, RPA, STAB
   Michael Roemelt        : Original ROCIS implementation
   Masaaki Saitow         : Open-shell DLPNO-CCSD energy and density
   Barbara Sandhoefer     : DKH picture change effects
   Avijit Sen             : IP-ROCIS
   Kantharuban Sivalingam : CASSCF convergence, NEVPT2, FIC-MRCI
   Bernardo de Souza      : ESD, SOC TD-DFT
   Georgi Stoychev        : AutoAux, RI-MP2 NMR, DLPNO-MP2 response
   Willem Van den Heuvel  : Paramagnetic NMR
   Boris Wezisla          : Elementary symmetry handling
   Frank Wennmohs         : Technical directorship


 We gratefully acknowledge several colleagues who have allowed us to
 interface, adapt or use parts of their codes:
   Stefan Grimme, W. Hujo, H. Kruse, P. Pracht,  : VdW corrections, initial TS optimization,
                  C. Bannwarth, S. Ehlert          DFT functionals, gCP, sTDA/sTD-DF
   Ed Valeev, F. Pavosevic, A. Kumar             : LibInt (2-el integral package), F12 methods
   Garnet Chan, S. Sharma, J. Yang, R. Olivares  : DMRG
   Ulf Ekstrom                                   : XCFun DFT Library
   Mihaly Kallay                                 : mrcc  (arbitrary order and MRCC methods)
   Jiri Pittner, Ondrej Demel                    : Mk-CCSD
   Frank Weinhold                                : gennbo (NPA and NBO analysis)
   Christopher J. Cramer and Donald G. Truhlar   : smd solvation model
   Lars Goerigk                                  : TD-DFT with DH, B97 family of functionals
   V. Asgeirsson, H. Jonsson                     : NEB implementation
   FAccTs GmbH                                   : IRC, NEB, NEB-TS, DLPNO-Multilevel, CI-OPT
                                                   MM, QMMM, 2- and 3-layer-ONIOM, Crystal-QMMM,
                                                   LR-CPCM, SF, NACMEs, symmetry and pop. for TD-DFT,
                                                   nearIR, NL-DFT gradient (VV10), updates on ESD,
                                                   ML-optimized integration grids
   S Lehtola, MJT Oliveira, MAL Marques          : LibXC Library
   Liviu Ungur et al                             : ANISO software


 Your calculation uses the libint2 library for the computation of 2-el integrals
 For citations please refer to: http://libint.valeyev.net

 Your ORCA version has been built with support for libXC version: 5.1.0
 For citations please refer to: https://tddft.org/programs/libxc/

 This ORCA versions uses:
   CBLAS   interface :  Fast vector & matrix operations
   LAPACKE interface :  Fast linear algebra routines
   SCALAPACK package :  Parallel linear algebra routines
   Shared memory     :  Shared parallel matrices
   BLAS/LAPACK       :  OpenBLAS 0.3.15  USE64BITINT DYNAMIC_ARCH NO_AFFINITY Zen SINGLE_THREADED
        Core in use  :  Zen
   Copyright (c) 2011-2014, The OpenBLAS Project


SCAN-COORDS
Your calculation utilizes the atom-pairwise dispersion correction
with the Becke-Johnson damping scheme (D3BJ)
Cite in your paper:
S.Grimme, S.Ehrlich, L.Goerigk, J Comput Chem, (2011), 32, 1456–1465 
S.Grimme, J.Antony, S.Ehrlich and H.Krieg, J.Chem.Phys., 132, (2010), 154104 
   

================================================================================

----- Orbital basis set information -----
Your calculation utilizes the basis: 6-31G
   H-He, Li-Ne : W. J. Hehre, R. Ditchfield and J.A. Pople, J. Chem. Phys. 56, 2257 (1972).
                 Note: He and Ne are unpublished basis sets taken from the Gaussian program.
                 Note: Li and B from J. D. Dill and J. A. Pople, J. Chem. Phys. 62, 2921 (1975).
   Na - Ar     : M. M. Francl, W. J. Pietro, W. J. Hehre, J. S. Binkley, M. S. Gordon, 
                 D. J. DeFrees and J. A. Pople, J. Chem. Phys. 77, 3654 (1982).
   K - Zn      : V. A. Rassolov, J. A. Pople, M. A. Ratner, and T. L. Windus, J. Chem. Phys. 109, 1223 (1998).

The basis set includes element-specific modifications.

Your calculation utilizes the basis: cc-pVQZ 
       H, B-Ne : Obtained from the ccRepo (grant-hill.group.shef.ac.uk/ccrepo) Feb. 2017
                 T. H. Dunning, Jr., J. Chem. Phys. 90, 1007 (1989)
            He : Obtained from the ccRepo (grant-hill.group.shef.ac.uk/ccrepo) Feb. 2017
                 D. E. Woon, T. H. Dunning, Jr., J. Chem. Phys. 100, 2975 (1994)
  Li-Be, Na-Mg : Obtained from the ccRepo (grant-hill.group.shef.ac.uk/ccrepo) Feb. 2017
                 B. P. Prascher, D. E. Woon, K. A. Peterson, T. H. Dunning, Jr., A. K. Wilson, Theor. Chem. Acc. 128, 69 (2011)
         Al-Ar : Obtained from the ccRepo (grant-hill.group.shef.ac.uk/ccrepo) Feb. 2017
                 D. E. Woon, T. H. Dunning, Jr., J. Chem. Phys. 98, 1358 (1993)
            Ca : Obtained from the Peterson Research Group Website (tyr0.chem.wsu.edu/~kipeters) Feb. 2017
                 J. Koput, K. A. Peterson, J. Phys. Chem. 106, 9595 (2002)
         Sc-Zn : Obtained from the ccRepo (grant-hill.group.shef.ac.uk/ccrepo) Feb. 2017
                 N. B. Balabanov, K. A. Peterson, J. Chem. Phys. 123, 064107 (2005)
                 N. B. Balabanov, K. A. Peterson, J. Chem. Phys. 125, 074110 (2006)
         Ga-Kr : Obtained from the ccRepo (grant-hill.group.shef.ac.uk/ccrepo) Feb. 2017
                 A. K. Wilson, D. E. Woon, K. A. Peterson, T. H. Dunning, Jr., J. Chem. Phys. 110, 7667 (1999)

----- AuxJ basis set information -----
Your calculation utilizes the auxiliary basis: SARC/J 
   decontracted def2/J up to Kr:
   F. Weigend, Phys. Chem. Chem. Phys. 8, 1057 (2006)
   and SARC auxiliary basis sets beyond Kr:
   D. A. Pantazis and F. Neese, J. Chem. Theory Comput. 5, 2229 (2009).
   D. A. Pantazis, X. Y. Chen, C. R. Landis and F. Neese, J. Chem. Theory Comput. 4, 908 (2008).
   D. A. Pantazis and F. Neese, Theor. Chem. Acc. 131, 1292 (2012).
   D. A. Pantazis and F. Neese, J. Chem. Theory Comput. 7, 677 (2011).

================================================================================
                                        WARNINGS
                       Please study these warnings very carefully!
================================================================================


WARNING: In scalar relativistic gradient/hessian runs we need the one-center approximation
  ===> : %rel OneCenter is turned on
INFO   : Checking CIS options ...

WARNING: CIS/ROCIS methods need fully converged wavefunctions
  ===> : Setting SCFConvForced true
         You can overwrite this default with %scf ConvForced false 


INFO   : the flag for use of the SHARK integral package has been found!

================================================================================
                                       INPUT FILE
================================================================================
NAME = ORCA.inp
|  1> ! 6-31G b3lyp D3 rijcosx tightscf zora nousesym engrad
|  2> %pal
|  3> 	nprocs 2
|  4> end
|  5> 
|  6> %maxcore 1000
|  7> 
|  8> %basis
|  9> 	newgto F "cc-pvqz" end
| 10> end
| 11> 
| 12> %method
| 13> 	frozencore -14
| 14> end
| 15> 
| 16> %tddft
| 17> 	tda true
| 18> 	triplets true
| 19> 	nroots 5
| 20> 	dosoc true
| 21> 	printlevel 3
| 22> 	sgradlist 0,1,2
| 23> 	tgradlist 1,2,3,4,5
| 24> end
| 25> 
| 26> %output
| 27> 	Print[ P_MOs ] 1
| 28> end
| 29> 
| 30> %scf
| 31> 	maxiter 700
| 32> end
| 33> 
| 34> %coords
| 35> 	Ctyp xyz
| 36> 	units bohrs
| 37> 	charge 0
| 38> 	mult 1
| 39> 	coords
| 40> 	S         0.000000000      0.000000000      0.000000000
| 41> 	O         0.000000000      2.456643962      1.417294593
| 42> 	O         0.000000000     -2.456643962      1.606267206
| 43> end
| 44> end
| 45> 
| 46> 
| 47>                          ****END OF INPUT****
================================================================================

                     *******************************
                     * Energy+Gradient Calculation *
                     *******************************

---------------------------------
CARTESIAN COORDINATES (ANGSTROEM)
---------------------------------
  S      0.000000    0.000000    0.000000
  O      0.000000    1.300000    0.750000
  O      0.000000   -1.300000    0.850000

----------------------------
CARTESIAN COORDINATES (A.U.)
----------------------------
  NO LB      ZA    FRAG     MASS         X           Y           Z
   0 S    16.0000    0    32.060    0.000000    0.000000    0.000000
   1 O     8.0000    0    15.999    0.000000    2.456644    1.417295
   2 O     8.0000    0    15.999    0.000000   -2.456644    1.606267

--------------------------------
INTERNAL COORDINATES (ANGSTROEM)
--------------------------------
 S      0   0   0     0.000000000000     0.00000000     0.00000000
 O      1   0   0     1.500833094468     0.00000000     0.00000000
 O      1   2   0     1.553222449074   116.83984898     0.00000000

---------------------------
INTERNAL COORDINATES (A.U.)
---------------------------
 S      0   0   0     0.000000000000     0.00000000     0.00000000
 O      1   0   0     2.836163521269     0.00000000     0.00000000
 O      1   2   0     2.935165053809   116.83984898     0.00000000

---------------------
BASIS SET INFORMATION
---------------------
There are 2 groups of distinct atoms

 Group   1 Type S   : 16s10p contracted to 4s3p pattern {6631/631}
 Group   2 Type O   : 10s4p contracted to 3s2p pattern {631/31}

Atom   0S    basis set group =>   1
Atom   1O    basis set group =>   2
Atom   2O    basis set group =>   2
---------------------------------
AUXILIARY/J BASIS SET INFORMATION
---------------------------------
There are 2 groups of distinct atoms

 Group   1 Type S   : 14s5p5d2f1g contracted to 14s5p5d2f1g pattern {11111111111111/11111/11111/11/1}
 Group   2 Type O   : 12s5p4d2f1g contracted to 12s5p4d2f1g pattern {111111111111/11111/1111/11/1}

Atom   0S    basis set group =>   1
Atom   1O    basis set group =>   2
Atom   2O    basis set group =>   2


           ************************************************************
           *        Program running with 2 parallel MPI-processes     *
           *              working on a common directory               *
           ************************************************************
------------------------------------------------------------------------------
                           ORCA GTO INTEGRAL CALCULATION
                           -- RI-GTO INTEGRALS CHOSEN --
------------------------------------------------------------------------------
------------------------------------------------------------------------------
                   ___                                                        
                  /   \      - P O W E R E D   B Y -                         
                 /     \                                                     
                 |  |  |   _    _      __       _____    __    __             
                 |  |  |  | |  | |    /  \     |  _  \  |  |  /  |          
                  \  \/   | |  | |   /    \    | | | |  |  | /  /          
                 / \  \   | |__| |  /  /\  \   | |_| |  |  |/  /          
                |  |  |   |  __  | /  /__\  \  |    /   |      \           
                |  |  |   | |  | | |   __   |  |    \   |  |\   \          
                \     /   | |  | | |  |  |  |  | |\  \  |  | \   \       
                 \___/    |_|  |_| |__|  |__|  |_| \__\ |__|  \__/        
                                                                              
                      - O R C A' S   B I G   F R I E N D -                    
                                      &                                       
                       - I N T E G R A L  F E E D E R -                       
                                                                              
 v1 FN, 2020, v2 2021                                                         
------------------------------------------------------------------------------


Reading SHARK input file ORCA.SHARKINP.tmp ... ok
----------------------
SHARK INTEGRAL PACKAGE
----------------------

Number of atoms                             ...      3
Number of basis functions                   ...     31
Number of shells                            ...     17
Maximum angular momentum                    ...      1
Integral batch strategy                     ... SHARK/LIBINT Hybrid
RI-J (if used) integral strategy            ... SPLIT-RIJ (Revised 2003 algorithm where possible)
Printlevel                                  ...      1
Contraction scheme used                     ... SEGMENTED contraction
Coulomb Range Separation                    ... NOT USED
Exchange Range Separation                   ... NOT USED
Finite Nucleus Model                        ... NOT USED
Auxiliary Coulomb fitting basis             ... AVAILABLE
   # of basis functions in Aux-J            ...    217
   # of shells in Aux-J                     ...     75
   Maximum angular momentum in Aux-J        ...      4
Auxiliary J/K fitting basis                 ... NOT available
Auxiliary Correlation fitting basis         ... NOT available
Auxiliary 'external' fitting basis          ... NOT available
Integral threshold                          ...     2.500000e-11
Primitive cut-off                           ...     2.500000e-12
Primitive pair pre-selection threshold      ...     2.500000e-12

Calculating pre-screening integrals         ... done (  0.0 sec) Dimension = 17
Organizing shell pair data                  ... done (  0.0 sec)
Shell pair information
Total number of shell pairs                 ...       153
Shell pairs after pre-screening             ...       150
Total number of primitive shell pairs       ...      1578
Primitive shell pairs kept                  ...      1221
          la=0 lb=0:     52 shell pairs
          la=1 lb=0:     70 shell pairs
          la=1 lb=1:     28 shell pairs

Calculating one electron integrals          ... done (  0.0 sec)
Calculating RI/J V-Matrix + Cholesky decomp.... done (  0.0 sec)
Calculating Nuclear repulsion               ... done (  0.0 sec) ENN=    101.756797918274 Eh

SHARK setup successfully completed in   0.2 seconds

Maximum memory used throughout the entire GTOINT-calculation: 8.1 MB


           ************************************************************
           *        Program running with 2 parallel MPI-processes     *
           *              working on a common directory               *
           ************************************************************
------------------------------------------------------------------------------
                          ORCA RELATIVISTIC HAMILTONIAN
------------------------------------------------------------------------------

Relativistic Method            ... ZORA(MP)
Treatment of potential         ... Van Wuellen
Nucleus model                  ... Point Nucleus
Speed of light used            ... 137.03598950000000


            *************************************************
            *         ZERO ORDER REGULAR APPROXIMATION      *
            *                     ZORA(MP)                  *
            *            Programmed by FN according to      *
            *                   C. van Wuellen              *
            *       J. Chem. Phys. (1998) vol 109, 392-399  *
            *************************************************

Terms included in model potential: +V(e,N)+V(C)+V(Xa)+V(VWN-V)
Basis function cutoff value   ... 1.000000e-11
Loading the fitted atomic densities (ZORA)   ... done
Calculating the cutoffs                      ... done
Number of fit functions                      ... 38
One center approximation for ZORA is active
Finding unique atoms                  ... 2 atom types
AtomType   0 (S ) Member=  0 NMembers=   1, NRad=2000 NumBF= 13
             ... doing numerical integration
             ... adding submatrices to 1 actual atoms
AtomType   1 (O ) Member=  1 NMembers=   2, NRad=2000 NumBF=  9
             ... doing numerical integration
             ... adding submatrices to 2 actual atoms
             ... done with one-center part

Maximum memory used throughout the entire REL-calculation: 0.5 MB


           ************************************************************
           *        Program running with 2 parallel MPI-processes     *
           *              working on a common directory               *
           ************************************************************
-------------------------------------------------------------------------------
                                 ORCA SCF
-------------------------------------------------------------------------------

------------
SCF SETTINGS
------------
Hamiltonian:
 Density Functional     Method          .... DFT(GTOs)
 Exchange Functional    Exchange        .... B88
   X-Alpha parameter    XAlpha          ....  0.666667
   Becke's b parameter  XBeta           ....  0.004200
 Correlation Functional Correlation     .... LYP
 LDA part of GGA corr.  LDAOpt          .... VWN-5
 Gradients option       PostSCFGGA      .... off
 Hybrid DFT is turned on
   Fraction HF Exchange ScalHFX         ....  0.200000
   Scaling of DF-GGA-X  ScalDFX         ....  0.720000
   Scaling of DF-GGA-C  ScalDFC         ....  0.810000
   Scaling of DF-LDA-C  ScalLDAC        ....  1.000000
   Perturbative correction              ....  0.000000
   Density functional embedding theory  .... OFF
   NL short-range parameter             ....  4.800000
 RI-approximation to the Coulomb term is turned on
   Number of AuxJ basis functions       .... 217
   RIJ-COSX (HFX calculated with COS-X)).... on

Relativistic Settings:
 Scalar relativistic method             .... ZORA
 Speed of light used       Velit        ....       137.035989
Orbital energies will be scaled


General Settings:
 Integral files         IntName         .... ORCA
 Hartree-Fock type      HFTyp           .... RHF
 Total Charge           Charge          ....    0
 Multiplicity           Mult            ....    1
 Number of Electrons    NEL             ....   32
 Basis Dimension        Dim             ....   31
 Nuclear Repulsion      ENuc            ....    101.7567979183 Eh

Convergence Acceleration:
 DIIS                   CNVDIIS         .... on
   Start iteration      DIISMaxIt       ....    12
   Startup error        DIISStart       ....  0.200000
   # of expansion vecs  DIISMaxEq       ....     5
   Bias factor          DIISBfac        ....   1.050
   Max. coefficient     DIISMaxC        ....  10.000
 Trust-Rad. Augm. Hess. CNVTRAH         .... auto
   Auto Start mean grad. ratio tolernc. ....  1.125000
   Auto Start start iteration           ....    20
   Auto Start num. interpolation iter.  ....    10
   Max. Number of Micro iterations      ....    16
   Max. Number of Macro iterations      .... Maxiter - #DIIS iter
   Number of Davidson start vectors     ....     2
   Converg. threshold I  (grad. norm)   ....   1.000e-05
   Converg. threshold II (energy diff.) ....   1.000e-08
   Grad. Scal. Fac. for Micro threshold ....   0.100
   Minimum threshold for Micro iter.    ....   0.010
   NR start threshold (gradient norm)   ....   0.001
   Initial trust radius                 ....   0.400
   Minimum AH scaling param. (alpha)    ....   1.000
   Maximum AH scaling param. (alpha)    .... 1000.000
   Orbital update algorithm             .... Taylor
   White noise on init. David. guess    .... on
   Maximum white noise                  ....   0.010
   Quad. conv. algorithm                .... NR
 SOSCF                  CNVSOSCF        .... on
   Start iteration      SOSCFMaxIt      ....   150
   Startup grad/error   SOSCFStart      ....  0.003300
 Level Shifting         CNVShift        .... on
   Level shift para.    LevelShift      ....    0.2500
   Turn off err/grad.   ShiftErr        ....    0.0010
 Zerner damping         CNVZerner       .... off
 Static damping         CNVDamp         .... on
   Fraction old density DampFac         ....    0.7000
   Max. Damping (<1)    DampMax         ....    0.9800
   Min. Damping (>=0)   DampMin         ....    0.0000
   Turn off err/grad.   DampErr         ....    0.1000
 Fernandez-Rico         CNVRico         .... off

SCF Procedure:
 Maximum # iterations   MaxIter         ....   700
 SCF integral mode      SCFMode         .... Direct
   Integral package                     .... SHARK and LIBINT hybrid scheme
 Reset frequency        DirectResetFreq ....    20
 Integral Threshold     Thresh          ....  2.500e-11 Eh
 Primitive CutOff       TCut            ....  2.500e-12 Eh

Convergence Tolerance:
 Convergence Check Mode ConvCheckMode   .... Total+1el-Energy
 Convergence forced     ConvForced      .... 1
 Energy Change          TolE            ....  1.000e-08 Eh
 1-El. energy change                    ....  1.000e-05 Eh
 Orbital Gradient       TolG            ....  1.000e-05
 Orbital Rotation angle TolX            ....  1.000e-05
 DIIS Error             TolErr          ....  5.000e-07


Diagonalization of the overlap matrix:
Smallest eigenvalue                        ... 4.470e-02
Time for diagonalization                   ...    0.000 sec
Threshold for overlap eigenvalues          ... 1.000e-08
Number of eigenvalues below threshold      ... 0
Time for construction of square roots      ...    0.000 sec
Total time needed                          ...    0.001 sec

Time for model grid setup =    0.044 sec

------------------------------
INITIAL GUESS: MODEL POTENTIAL
------------------------------
Loading ZORA relativistic densities                ... done
Calculating cut-offs                               ... done
Initializing the effective Hamiltonian             ... done
Setting up the integral package (SHARK)            ... done
Starting the Coulomb interaction                   ... done (   0.0 sec)
Reading the grid                                   ... done
Mapping shells                                     ... done
Starting the XC term evaluation                    ... done (   0.0 sec)
  promolecular density results
     # of electrons  =     32.000724518
     EX              =    -41.522421870
     EC              =     -1.247424401
     EX+EC           =    -42.769846271
Transforming the Hamiltonian                       ... done (   0.0 sec)
Diagonalizing the Hamiltonian                      ... done (   0.0 sec)
Back transforming the eigenvectors                 ... done (   0.0 sec)
Now organizing SCF variables                       ... done
                      ------------------
                      INITIAL GUESS DONE (   0.1 sec)
                      ------------------
-------------------
DFT GRID GENERATION
-------------------

General Integration Accuracy     IntAcc      ... 4.388
Radial Grid Type                 RadialGrid  ... OptM3 with GC (2021)
Angular Grid (max. ang.)         AngularGrid ... 4 (Lebedev-302)
Angular grid pruning method      GridPruning ... 4 (adaptive)
Weight generation scheme         WeightScheme... Becke
Basis function cutoff            BFCut       ... 1.0000e-11
Integration weight cutoff        WCut        ... 1.0000e-14
Angular grids for H and He will be reduced by one unit
Partially contracted basis set               ... off
Rotationally invariant grid construction     ... off

Total number of grid points                  ...    19619
Total number of batches                      ...      309
Average number of points per batch           ...       63
Average number of grid points per atom       ...     6540
Time for grid setup =    0.241 sec

--------------------
COSX GRID GENERATION
--------------------

GRIDX 1
-------
General Integration Accuracy     IntAcc      ... 3.816
Radial Grid Type                 RadialGrid  ... OptM3 with GC (2021)
Angular Grid (max. ang.)         AngularGrid ... 1 (Lebedev-50)
Angular grid pruning method      GridPruning ... 4 (adaptive)
Weight generation scheme         WeightScheme... Becke
Basis function cutoff            BFCut       ... 1.0000e-11
Integration weight cutoff        WCut        ... 1.0000e-14
Angular grids for H and He will be reduced by one unit
Partially contracted basis set               ... on
Rotationally invariant grid construction     ... off

Total number of grid points                  ...     2382
Total number of batches                      ...       39
Average number of points per batch           ...       61
Average number of grid points per atom       ...      794
UseSFitting                                  ... on

GRIDX 2
-------
General Integration Accuracy     IntAcc      ... 4.020
Radial Grid Type                 RadialGrid  ... OptM3 with GC (2021)
Angular Grid (max. ang.)         AngularGrid ... 2 (Lebedev-110)
Angular grid pruning method      GridPruning ... 4 (adaptive)
Weight generation scheme         WeightScheme... Becke
Basis function cutoff            BFCut       ... 1.0000e-11
Integration weight cutoff        WCut        ... 1.0000e-14
Angular grids for H and He will be reduced by one unit
Partially contracted basis set               ... on
Rotationally invariant grid construction     ... off

Total number of grid points                  ...     5736
Total number of batches                      ...       91
Average number of points per batch           ...       63
Average number of grid points per atom       ...     1912
UseSFitting                                  ... on

GRIDX 3
-------
General Integration Accuracy     IntAcc      ... 4.338
Radial Grid Type                 RadialGrid  ... OptM3 with GC (2021)
Angular Grid (max. ang.)         AngularGrid ... 3 (Lebedev-194)
Angular grid pruning method      GridPruning ... 4 (adaptive)
Weight generation scheme         WeightScheme... Becke
Basis function cutoff            BFCut       ... 1.0000e-11
Integration weight cutoff        WCut        ... 1.0000e-14
Angular grids for H and He will be reduced by one unit
Partially contracted basis set               ... on
Rotationally invariant grid construction     ... off

Total number of grid points                  ...    13422
Total number of batches                      ...      211
Average number of points per batch           ...       63
Average number of grid points per atom       ...     4474
UseSFitting                                  ... on

Time for X-Grid setup             =    0.187 sec

--------------
SCF ITERATIONS
--------------
ITER       Energy         Delta-E        Max-DP      RMS-DP      [F,P]     Damp
               ***  Starting incremental Fock matrix formation  ***
  0   -549.8373661385   0.000000000000 0.22361308  0.01979435  0.3287245 0.7000
  1   -550.0151354524  -0.177769313878 0.14300572  0.01046669  0.1347901 0.7000
                               ***Turning on DIIS***
  2   -550.0561892187  -0.041053766283 0.13969202  0.00891305  0.0284347 0.0000
  3   -550.1411634861  -0.084974267414 0.08156371  0.00609265  0.0939226 0.0000
  4   -550.1592396284  -0.018076142251 0.02492525  0.00256041  0.0389153 0.0000
  5   -550.1619669169  -0.002727288513 0.01165221  0.00092249  0.0127096 0.0000
                      *** Initiating the SOSCF procedure ***
                           *** Shutting down DIIS ***
                      *** Re-Reading the Fockian *** 
                      *** Removing any level shift *** 
ITER      Energy       Delta-E        Grad      Rot      Max-DP    RMS-DP
  6   -550.16231322  -0.0003463013  0.000699  0.000699  0.002282  0.000252
               *** Restarting incremental Fock matrix formation ***
  7   -550.16234963  -0.0000364163  0.000604  0.001844  0.003120  0.000202
  8   -550.16234697   0.0000026619  0.000918  0.000778  0.001350  0.000113
  9   -550.16235127  -0.0000042992  0.000296  0.001250  0.001310  0.000120
 10   -550.16234677   0.0000045014  0.001081  0.001000  0.001153  0.000095
 11   -550.16235163  -0.0000048550  0.000046  0.000044  0.000178  0.000015
 12   -550.16235163  -0.0000000001  0.000031  0.000020  0.000078  0.000006
                 **** Energy Check signals convergence ****
              ***Rediagonalizing the Fockian in SOSCF/NRSCF***

               *****************************************************
               *                     SUCCESS                       *
               *           SCF CONVERGED AFTER  13 CYCLES          *
               *****************************************************

Old exchange energy                            =     -8.258582622 Eh
New exchange energy                            =     -8.258560761 Eh
Exchange energy change after final integration =      0.000021861 Eh
Total energy after final integration           =   -550.162329774 Eh
Final COS-X integration done in                =     0.232 sec

----------------
TOTAL SCF ENERGY
----------------

Total Energy       :         -550.16232977 Eh          -14970.67809 eV

Components:
Nuclear Repulsion  :          101.75679792 Eh            2768.94324 eV
Electronic Energy  :         -651.91912769 Eh          -17739.62133 eV
One Electron Energy:         -958.78058767 Eh          -26089.74617 eV
Two Electron Energy:          306.86145997 Eh            8350.12484 eV
Max COSX asymmetry :            0.00000410 Eh               0.00011 eV

Virial components:
Potential Energy   :        -1095.67812724 Eh          -29814.91760 eV
Kinetic Energy     :          545.51579747 Eh           14844.23952 eV
Virial Ratio       :            2.00851769


DFT components:
N(Alpha)           :       15.999998631198 electrons
N(Beta)            :       15.999998631198 electrons
N(Total)           :       31.999997262396 electrons
E(X)               :      -32.956702512704 Eh       
E(C)               :       -1.461592180088 Eh       
E(XC)              :      -34.418294692792 Eh       
DFET-embed. en.    :        0.000000000000 Eh       

---------------
SCF CONVERGENCE
---------------

  Last Energy change         ...   -9.8032e-09  Tolerance :   1.0000e-08
  Last MAX-Density change    ...    2.6645e-15  Tolerance :   1.0000e-07
  Last RMS-Density change    ...    1.9171e-16  Tolerance :   5.0000e-09
  Last Orbital Gradient      ...    1.2037e-07  Tolerance :   1.0000e-05
  Last Orbital Rotation      ...    3.4960e-07  Tolerance :   1.0000e-05

             **** THE GBW FILE WAS UPDATED (ORCA.gbw) ****
             **** DENSITY ORCA.scfp WAS UPDATED ****
             **** ENERGY FILE WAS UPDATED (ORCA.en.tmp) ****
             **** THE GBW FILE WAS UPDATED (ORCA.gbw) ****
             **** DENSITY ORCA.scfp WAS UPDATED ****
----------------
ORBITAL ENERGIES
----------------

  NO   OCC          E(Eh)            E(eV) 
   0   2.0000     -89.746869     -2442.1365 
   1   2.0000     -19.259970      -524.0904 
   2   2.0000     -19.254523      -523.9422 
   3   2.0000      -8.219747      -223.6707 
   4   2.0000      -6.136661      -166.9870 
   5   2.0000      -6.131708      -166.8523 
   6   2.0000      -6.128724      -166.7711 
   7   2.0000      -1.158720       -31.5304 
   8   2.0000      -1.052564       -28.6417 
   9   2.0000      -0.672876       -18.3099 
  10   2.0000      -0.495389       -13.4802 
  11   2.0000      -0.489443       -13.3184 
  12   2.0000      -0.486548       -13.2396 
  13   2.0000      -0.352004        -9.5785 
  14   2.0000      -0.347425        -9.4539 
  15   2.0000      -0.324854        -8.8397 
  16   0.0000      -0.168019        -4.5720 
  17   0.0000       0.010485         0.2853 
  18   0.0000       0.044922         1.2224 
  19   0.0000       0.219765         5.9801 
  20   0.0000       0.279175         7.5967 
  21   0.0000       0.308419         8.3925 
  22   0.0000       0.359351         9.7784 
  23   0.0000       0.848795        23.0969 
  24   0.0000       0.852899        23.2086 
  25   0.0000       0.919371        25.0173 
  26   0.0000       0.934134        25.4191 
  27   0.0000       0.935991        25.4696 
  28   0.0000       1.015250        27.6264 
  29   0.0000       1.370473        37.2925 
  30   0.0000       1.433361        39.0037 
------------------
MOLECULAR ORBITALS
------------------
                      0         1         2         3         4         5   
                 -89.74687 -19.25997 -19.25452  -8.21975  -6.13666  -6.13171
                   2.00000   2.00000   2.00000   2.00000   2.00000   2.00000
                  --------  --------  --------  --------  --------  --------
  0S   1s        -0.997488  0.000008  0.000005 -0.278529 -0.000601 -0.000000
  0S   2s        -0.009354 -0.000098 -0.000025  1.028225  0.002217  0.000000
  0S   1pz       -0.000146 -0.000000  0.000014  0.016757 -0.008287 -0.000000
  0S   1px       -0.000000 -0.000000  0.000000  0.000000  0.000000  0.991885
  0S   1py       -0.000015 -0.000057  0.000035  0.001831 -0.991053  0.000000
  0S   3s         0.002752 -0.000347 -0.000202  0.031302 -0.000505 -0.000000
  0S   2pz        0.000253 -0.000623 -0.000666  0.002937 -0.000338 -0.000000
  0S   2px       -0.000000  0.000000  0.000000  0.000000  0.000000  0.026999
  0S   2py        0.000035 -0.000777  0.000698  0.000454 -0.030581  0.000000
  0S   4s        -0.000860 -0.004967 -0.004698 -0.008413  0.000000 -0.000000
  0S   3pz        0.000087 -0.002322 -0.002381 -0.000258  0.000092  0.000000
  0S   3px       -0.000000  0.000000 -0.000000 -0.000000 -0.000000 -0.007316
  0S   3py        0.000000 -0.002800  0.002546 -0.000068  0.007218 -0.000000
  1O   1s         0.000017 -0.995241  0.000533 -0.000070  0.000360 -0.000000
  1O   2s         0.000065 -0.027426 -0.000216  0.000136  0.000263 -0.000000
  1O   1pz        0.000031  0.001066 -0.000137  0.000026  0.000141 -0.000000
  1O   1px       -0.000000 -0.000000 -0.000000 -0.000000 -0.000000 -0.000184
  1O   1py        0.000044  0.002012  0.000046  0.000025  0.000308  0.000000
  1O   3s        -0.000299  0.013823  0.000931 -0.001183  0.000762  0.000000
  1O   2pz        0.000152 -0.001713  0.000596  0.001024 -0.001602 -0.000000
  1O   2px       -0.000000 -0.000000  0.000000 -0.000000 -0.000000  0.000114
  1O   2py        0.000340 -0.003322 -0.000771  0.002134 -0.002289 -0.000000
  2O   1s         0.000016 -0.000569 -0.995253 -0.000025 -0.000224  0.000000
  2O   2s         0.000082 -0.000246 -0.027170  0.000157 -0.000310  0.000000
  2O   1pz        0.000021 -0.000132  0.001086  0.000045 -0.000011  0.000000
  2O   1px       -0.000000  0.000000  0.000000 -0.000000 -0.000000 -0.000169
  2O   1py       -0.000023 -0.000055 -0.001809 -0.000038  0.000070 -0.000000
  2O   3s        -0.000271  0.000930  0.013241 -0.000939 -0.000495  0.000000
  2O   2pz        0.000161  0.000521 -0.001795  0.001001  0.001513 -0.000000
  2O   2px        0.000000 -0.000000 -0.000000 -0.000000  0.000000  0.000132
  2O   2py       -0.000315  0.000796  0.003042 -0.001860 -0.001904  0.000000
                      6         7         8         9        10        11   
                  -6.12872  -1.15872  -1.05256  -0.67288  -0.49539  -0.48944
                   2.00000   2.00000   2.00000   2.00000   2.00000   2.00000
                  --------  --------  --------  --------  --------  --------
  0S   1s        -0.004951 -0.047319  0.007084  0.063748  0.000000  0.004502
  0S   2s         0.018559  0.213010 -0.031618 -0.280518 -0.000000 -0.024371
  0S   1pz       -0.991485  0.064421 -0.011961  0.040512  0.000000  0.150686
  0S   1px       -0.000000  0.000000 -0.000000 -0.000000 -0.215160  0.000000
  0S   1py        0.008360  0.025624  0.117575  0.004859 -0.000000 -0.119653
  0S   3s        -0.002524 -0.446516  0.069590  0.695880  0.000000  0.028474
  0S   2pz       -0.028166 -0.144007  0.028009 -0.081412 -0.000000 -0.409586
  0S   2px       -0.000000 -0.000000  0.000000  0.000000  0.576265 -0.000000
  0S   2py        0.000140 -0.054050 -0.253550 -0.008662  0.000000  0.331034
  0S   4s        -0.001567  0.023671  0.003672  0.221977  0.000000  0.066538
  0S   3pz        0.006514  0.039992 -0.005769 -0.031683 -0.000000 -0.104873
  0S   3px        0.000000 -0.000000  0.000000 -0.000000  0.185780 -0.000000
  0S   3py       -0.000005  0.015400  0.062193 -0.000817  0.000000  0.019744
  1O   1s         0.000179  0.145401  0.126397  0.109897  0.000000  0.021396
  1O   2s        -0.000208 -0.316620 -0.276640 -0.251264 -0.000000 -0.054375
  1O   1pz        0.000206  0.069756  0.057564 -0.079578 -0.000000 -0.293331
  1O   1px        0.000000 -0.000000  0.000000 -0.000000  0.313748 -0.000000
  1O   1py        0.000149  0.132803  0.083330 -0.099902 -0.000000  0.049769
  1O   3s         0.001486 -0.318380 -0.303034 -0.356850 -0.000000 -0.062505
  1O   2pz       -0.000892  0.029307  0.031136 -0.023147 -0.000000 -0.184447
  1O   2px       -0.000000  0.000000 -0.000000 -0.000000  0.195451 -0.000000
  1O   2py       -0.001860  0.059488  0.045142 -0.024031 -0.000000  0.038508
  2O   1s         0.000124  0.095792 -0.169372  0.107023 -0.000000 -0.074687
  2O   2s        -0.000183 -0.208622  0.370813 -0.245138  0.000000  0.167136
  2O   1pz        0.000139  0.047905 -0.076773 -0.080666  0.000000  0.104037
  2O   1px        0.000000  0.000000  0.000000  0.000000  0.252835 -0.000000
  2O   1py       -0.000037 -0.086002  0.109467  0.090464 -0.000000 -0.340208
  2O   3s         0.001443 -0.208591  0.400579 -0.339047  0.000000  0.290026
  2O   2pz       -0.001092  0.020644 -0.043109 -0.024836  0.000000  0.032149
  2O   2px       -0.000000  0.000000  0.000000  0.000000  0.154189 -0.000000
  2O   2py        0.001845 -0.041451  0.061686  0.023766 -0.000000 -0.173306
                     12        13        14        15        16        17   
                  -0.48655  -0.35200  -0.34742  -0.32485  -0.16802   0.01049
                   2.00000   2.00000   2.00000   2.00000   0.00000   0.00000
                  --------  --------  --------  --------  --------  --------
  0S   1s         0.005754  0.000000  0.002077  0.016868  0.000000  0.027585
  0S   2s        -0.031106 -0.000000 -0.010915 -0.087091 -0.000000 -0.130280
  0S   1pz        0.136511  0.000000  0.019312  0.102364 -0.000000 -0.171389
  0S   1px       -0.000000 -0.013387  0.000000  0.000000  0.208354 -0.000000
  0S   1py        0.133300 -0.000000 -0.003004 -0.000132 -0.000000  0.030845
  0S   3s         0.038273  0.000000  0.017072  0.150455  0.000000  0.320661
  0S   2pz       -0.370891 -0.000000 -0.053988 -0.279460  0.000000  0.551456
  0S   2px        0.000000  0.037508 -0.000000 -0.000000 -0.612732  0.000000
  0S   2py       -0.369076  0.000000  0.001093  0.003883  0.000000 -0.093254
  0S   4s         0.096127  0.000000  0.042653  0.448094 -0.000000  0.837331
  0S   3pz       -0.091624 -0.000000 -0.009205  0.026374  0.000000  0.767568
  0S   3px        0.000000  0.024688 -0.000000 -0.000000 -0.307824  0.000000
  0S   3py       -0.010761 -0.000000 -0.179943  0.026368  0.000000 -0.119559
  1O   1s        -0.076875 -0.000000  0.001043  0.001382  0.000000  0.045888
  1O   2s         0.173413 -0.000000 -0.018267  0.013554 -0.000000 -0.090885
  1O   1pz        0.099449  0.000000  0.347055  0.396387 -0.000000 -0.057912
  1O   1px        0.000000 -0.445065  0.000000  0.000000  0.391913 -0.000000
  1O   1py        0.386079 -0.000000 -0.329413  0.066976  0.000000  0.345774
  1O   3s         0.294095  0.000000  0.083334 -0.122735  0.000000 -0.491372
  1O   2pz        0.030350  0.000000  0.224963  0.314020 -0.000000 -0.035989
  1O   2px        0.000000 -0.345156  0.000000  0.000000  0.333782 -0.000000
  1O   2py        0.196894 -0.000000 -0.249374  0.067650  0.000000  0.428839
  2O   1s         0.026277 -0.000000 -0.004913 -0.001725  0.000000  0.060548
  2O   2s        -0.066457  0.000000  0.030607  0.018936 -0.000000 -0.114948
  2O   1pz       -0.251452  0.000000 -0.258963  0.474665 -0.000000  0.066938
  2O   1px        0.000000  0.479336 -0.000000 -0.000000  0.391340 -0.000000
  2O   1py       -0.018441 -0.000000 -0.391838  0.003813  0.000000 -0.394037
  2O   3s        -0.078058  0.000000 -0.080206 -0.086690  0.000000 -0.644384
  2O   2pz       -0.158402  0.000000 -0.155182  0.365346 -0.000000  0.109628
  2O   2px        0.000000  0.364070 -0.000000 -0.000000  0.328325 -0.000000
  2O   2py       -0.018935 -0.000000 -0.295487 -0.016228  0.000000 -0.498859
                     18        19        20        21        22        23   
                   0.04492   0.21977   0.27918   0.30842   0.35935   0.84880
                   0.00000   0.00000   0.00000   0.00000   0.00000   0.00000
                  --------  --------  --------  --------  --------  --------
  0S   1s        -0.003054 -0.068480 -0.000000 -0.012867 -0.006053  0.005558
  0S   2s         0.018611  0.089855  0.000000  0.011095  0.010494  0.000390
  0S   1pz        0.018926 -0.053833  0.000000  0.269298  0.045183 -0.021844
  0S   1px        0.000000  0.000000 -0.258965  0.000000 -0.000000 -0.000000
  0S   1py        0.175446 -0.004046 -0.000000 -0.044057  0.315126 -0.001893
  0S   3s        -0.022817 -1.634093 -0.000000 -0.326015 -0.137983  0.178093
  0S   2pz       -0.065734  0.225684 -0.000000 -1.124463 -0.191828  0.155917
  0S   2px       -0.000000 -0.000000  1.089911 -0.000000  0.000000 -0.000000
  0S   2py       -0.564795  0.021956  0.000000  0.180287 -1.308644  0.019705
  0S   4s        -0.237076  2.154667  0.000000  0.461301  0.086731  0.252337
  0S   3pz       -0.123491  0.047289  0.000000  1.446175  0.190748  0.425148
  0S   3px       -0.000000  0.000000 -1.375832  0.000000 -0.000000 -0.000000
  0S   3py       -1.195901 -0.074785 -0.000000 -0.239478  1.372385 -0.001894
  1O   1s        -0.064223  0.017106  0.000000  0.002843 -0.009545  0.028059
  1O   2s         0.106126 -0.013641 -0.000000  0.018362  0.069800 -0.187117
  1O   1pz       -0.260430 -0.099461 -0.000000 -0.097892 -0.145324  0.416575
  1O   1px        0.000000 -0.000000  0.052287 -0.000000  0.000000 -0.000001
  1O   1py       -0.165902 -0.107321 -0.000000 -0.103315 -0.288516 -0.509929
  1O   3s         0.832698 -0.409246 -0.000000 -0.243487 -0.331398 -0.067411
  1O   2pz       -0.336163  0.010548 -0.000000 -0.153052 -0.082369 -0.457400
  1O   2px        0.000000  0.000000  0.136855  0.000000 -0.000000  0.000001
  1O   2py       -0.304096  0.073371  0.000000  0.028948 -0.224978  0.736498
  2O   1s         0.042767  0.021471  0.000000  0.004177  0.004904  0.026887
  2O   2s        -0.066416 -0.019995 -0.000000  0.034255 -0.049192 -0.185609
  2O   1pz        0.271447 -0.088021 -0.000000 -0.142621  0.104038  0.393324
  2O   1px        0.000000  0.000000  0.058798  0.000000  0.000000  0.000001
  2O   1py       -0.048715  0.098766  0.000000  0.170855 -0.198589  0.504826
  2O   3s        -0.554963 -0.464375 -0.000000 -0.406446  0.279767 -0.055020
  2O   2pz        0.331694  0.047776 -0.000000 -0.136900  0.003704 -0.420964
  2O   2px        0.000000 -0.000000  0.140924  0.000000  0.000000 -0.000001
  2O   2py       -0.133646 -0.096558  0.000000 -0.009195 -0.155893 -0.705758
                     24        25        26        27        28        29   
                   0.85290   0.91937   0.93413   0.93599   1.01525   1.37047
                   0.00000   0.00000   0.00000   0.00000   0.00000   0.00000
                  --------  --------  --------  --------  --------  --------
  0S   1s        -0.000000 -0.007251 -0.015696  0.000000  0.000785 -0.000546
  0S   2s         0.000000 -0.019077 -0.027314 -0.000000 -0.004185  0.012169
  0S   1pz        0.000000  0.008464  0.024028 -0.000000 -0.002832  0.006660
  0S   1px       -0.000117  0.000000  0.000000  0.002200  0.000000 -0.000000
  0S   1py        0.000000  0.037539 -0.019402  0.000000  0.023243 -0.059341
  0S   3s        -0.000000 -0.296729 -0.596200 -0.000000  0.010354  0.024257
  0S   2pz       -0.000000 -0.106661 -0.260654  0.000000  0.012820 -0.031696
  0S   2px       -0.005687  0.000000 -0.000000 -0.015995 -0.000000  0.000000
  0S   2py       -0.000000 -0.360085  0.140551 -0.000000 -0.278291  0.583808
  0S   4s        -0.000000 -0.029643 -0.039621  0.000000 -0.008520 -0.049519
  0S   3pz       -0.000000  0.099243  0.202318  0.000000 -0.025629 -0.055595
  0S   3px       -0.024880  0.000000 -0.000000 -0.524059 -0.000000 -0.000000
  0S   3py       -0.000000 -0.062849  0.030077  0.000000  0.478533  0.881334
  1O   1s        -0.000000 -0.046501 -0.005895 -0.000000 -0.004518 -0.044023
  1O   2s         0.000000  0.354986 -0.026758  0.000000  0.029769  1.116665
  1O   1pz       -0.000000  0.712294  0.238310  0.000000 -0.323800 -0.202690
  1O   1px       -0.699319  0.000000 -0.000000 -0.650810  0.000000 -0.000000
  1O   1py        0.000001  0.388884  0.247711  0.000000  0.571148 -0.141976
  1O   3s         0.000000 -0.123571  0.078434 -0.000000 -0.124778 -1.742241
  1O   2pz        0.000000 -0.998366 -0.358455 -0.000000  0.404787  0.580947
  1O   2px        0.790743 -0.000000  0.000000  0.876700 -0.000000  0.000000
  1O   2py       -0.000001 -0.672472 -0.406472 -0.000000 -0.805894  0.469329
  2O   1s        -0.000000  0.027189 -0.039231 -0.000000  0.006430  0.049859
  2O   2s         0.000000 -0.269810  0.293930  0.000000 -0.059863 -1.220956
  2O   1pz       -0.000000 -0.276667  0.727239 -0.000000  0.271109  0.228637
  2O   1px        0.656425 -0.000000 -0.000000 -0.694282  0.000000  0.000000
  2O   1py       -0.000000  0.078927 -0.388710 -0.000000  0.628951 -0.169300
  2O   3s         0.000000  0.163673 -0.130024  0.000000  0.164735  1.864385
  2O   2pz        0.000000  0.366880 -1.011293  0.000000 -0.335689 -0.617106
  2O   2px       -0.725871 -0.000000 -0.000000  0.916005  0.000000  0.000000
  2O   2py        0.000001 -0.143886  0.641661 -0.000000 -0.859658  0.509640
                     30   
                   1.43336
                   0.00000
                  --------
  0S   1s         0.011189
  0S   2s        -0.039139
  0S   1pz       -0.045458
  0S   1px       -0.000000
  0S   1py       -0.001283
  0S   3s         0.280454
  0S   2pz        0.391021
  0S   2px        0.000000
  0S   2py        0.058037
  0S   4s         1.641477
  0S   3pz        0.810592
  0S   3px        0.000000
  0S   3py        0.080431
  1O   1s        -0.042765
  1O   2s         1.318629
  1O   1pz       -0.018915
  1O   1px       -0.000000
  1O   1py       -0.193855
  1O   3s        -2.248548
  1O   2pz        0.173112
  1O   2px        0.000000
  1O   2py        0.828893
  2O   1s        -0.039651
  2O   2s         1.179281
  2O   1pz       -0.020991
  2O   1px        0.000000
  2O   1py        0.194311
  2O   3s        -1.972716
  2O   2pz        0.163898
  2O   2px       -0.000000
  2O   2py       -0.756568



                    ********************************
                    * MULLIKEN POPULATION ANALYSIS *
                    ********************************

-----------------------
MULLIKEN ATOMIC CHARGES
-----------------------
   0 S :    0.965607
   1 O :   -0.477990
   2 O :   -0.487617
Sum of atomic charges:    0.0000000

--------------------------------
MULLIKEN REDUCED ORBITAL CHARGES
--------------------------------
  0 S s       :     5.908577  s :     5.908577
      pz      :     3.172302  p :     9.125816
      px      :     3.143893
      py      :     2.809621
  1 O s       :     3.996304  s :     3.996304
      pz      :     1.721296  p :     4.481686
      px      :     1.432010
      py      :     1.328381
  2 O s       :     4.003991  s :     4.003991
      pz      :     1.705675  p :     4.483626
      px      :     1.424097
      py      :     1.353854


                     *******************************
                     * LOEWDIN POPULATION ANALYSIS *
                     *******************************

----------------------
LOEWDIN ATOMIC CHARGES
----------------------
   0 S :    0.990135
   1 O :   -0.494248
   2 O :   -0.495887

-------------------------------
LOEWDIN REDUCED ORBITAL CHARGES
-------------------------------
  0 S s       :     5.717487  s :     5.717487
      pz      :     3.257577  p :     9.292378
      px      :     3.128642
      py      :     2.906159
  1 O s       :     3.813461  s :     3.813461
      pz      :     1.774500  p :     4.680786
      px      :     1.439568
      py      :     1.466718
  2 O s       :     3.832702  s :     3.832702
      pz      :     1.759721  p :     4.663185
      px      :     1.431790
      py      :     1.471674


                      *****************************
                      * MAYER POPULATION ANALYSIS *
                      *****************************

  NA   - Mulliken gross atomic population
  ZA   - Total nuclear charge
  QA   - Mulliken gross atomic charge
  VA   - Mayer's total valence
  BVA  - Mayer's bonded valence
  FA   - Mayer's free valence

  ATOM       NA         ZA         QA         VA         BVA        FA
  0 S     15.0344    16.0000     0.9656     2.8971     2.8971     0.0000
  1 O      8.4780     8.0000    -0.4780     1.8353     1.8353     0.0000
  2 O      8.4876     8.0000    -0.4876     1.8371     1.8371     0.0000

  Mayer bond orders larger than 0.100000
B(  0-S ,  1-O ) :   1.4477 B(  0-S ,  2-O ) :   1.4494 B(  1-O ,  2-O ) :   0.3877 


-------
TIMINGS
-------

Total SCF time: 0 days 0 hours 0 min 3 sec 

Total time                  ....       3.105 sec
Sum of individual times     ....       2.987 sec  ( 96.2%)

Fock matrix formation       ....       2.471 sec  ( 79.6%)
  Split-RI-J                ....       0.325 sec  ( 13.2% of F)
  Chain of spheres X        ....       1.584 sec  ( 64.1% of F)
  XC integration            ....       0.533 sec  ( 21.6% of F)
    Basis function eval.    ....       0.221 sec  ( 41.4% of XC)
    Density eval.           ....       0.076 sec  ( 14.3% of XC)
    XC-Functional eval.     ....       0.142 sec  ( 26.7% of XC)
    XC-Potential eval.      ....       0.046 sec  (  8.7% of XC)
Diagonalization             ....       0.005 sec  (  0.2%)
Density matrix formation    ....       0.000 sec  (  0.0%)
Population analysis         ....       0.002 sec  (  0.1%)
Initial guess               ....       0.025 sec  (  0.8%)
Orbital Transformation      ....       0.000 sec  (  0.0%)
Orbital Orthonormalization  ....       0.000 sec  (  0.0%)
DIIS solution               ....       0.007 sec  (  0.2%)
SOSCF solution              ....       0.004 sec  (  0.1%)
Grid generation             ....       0.472 sec  ( 15.2%)

Maximum memory used throughout the entire SCF-calculation: 43.7 MB


           ************************************************************
           *        Program running with 2 parallel MPI-processes     *
           *              working on a common directory               *
           ************************************************************
------------------------------------------------------------------------------
                        ORCA TD-DFT/TDA CALCULATION
------------------------------------------------------------------------------

Input orbitals are from        ... ORCA.gbw
CI-vector output               ... ORCA.cis
Tamm-Dancoff approximation     ... operative
CIS-Integral strategy          ... AO-integrals
Integral handling              ... AO integral Direct
Max. core memory used          ... 1000 MB
Reference state                ... RHF
Generation of triplets         ... on
Follow IRoot                   ... off
Number of operators            ... 1
Orbital ranges used for CIS calculation:
 Operator 0:  Orbitals   7... 15  to  16... 30
XAS localization array:
 Operator 0:  Orbitals  -1... -1

-------------------
XC-INTEGRATION GRID
-------------------

General Integration Accuracy     IntAcc      ... 3.467
Radial Grid Type                 RadialGrid  ... OptM3 with GC (2021)
Angular Grid (max. ang.)         AngularGrid ... 1 (Lebedev-50)
Angular grid pruning method      GridPruning ... 4 (adaptive)
Weight generation scheme         WeightScheme... Becke
Basis function cutoff            BFCut       ... 1.0000e-11
Integration weight cutoff        WCut        ... 1.0000e-14
Angular grids for H and He will be reduced by one unit
Partially contracted basis set               ... off
Rotationally invariant grid construction     ... off

Total number of grid points                  ...     3014
Total number of batches                      ...       49
Average number of points per batch           ...       61
Average number of grid points per atom       ...     1005

---------------------
COSX-INTEGRATION GRID
---------------------

General Integration Accuracy     IntAcc      ... 3.067
Radial Grid Type                 RadialGrid  ... OptM3 with GC (2021)
Angular Grid (max. ang.)         AngularGrid ... 1 (Lebedev-50)
Angular grid pruning method      GridPruning ... 4 (adaptive)
Weight generation scheme         WeightScheme... Becke
Basis function cutoff            BFCut       ... 1.0000e-11
Integration weight cutoff        WCut        ... 1.0000e-14
Angular grids for H and He will be reduced by one unit
Partially contracted basis set               ... on
Rotationally invariant grid construction     ... off

Total number of grid points                  ...     1376
Total number of batches                      ...       23
Average number of points per batch           ...       59
Average number of grid points per atom       ...      459

---------------
TD-DFT XC SETUP
---------------

DFT calculation                         ... on
Name of the grid file                   ... ORCA.grid_cis.tmp
Exchange functional (TD-DFT)            ... B88
   X-Alpha parameter    XAlpha (TD-DFT) ...  0.666667
   Becke's b parameter  XBeta (TD-DFT)  ...  0.004200
Correlation functional (TD-DFT)         ... LYP
 LDA part of GGA corr.  LDAOpt (TD-DFT) ... VWN-5
Hybrid DFT                              ... on
   Exchange mixing (TD-DFT)             ...  0.200
   GGA exch. scaling (TD-DFT)           ...  0.720
   GGA corr. scaling (TD-DFT)           ...  0.810

Building densities             ... done
Calculating rho(r) on the grid ... done
Building xc-kernel on the grid ... done
                    *** TD-DFT CALCULATION INITIALIZED ***

Entering Solve()
   ... Initialized Buffers
------------------------
DAVIDSON-DIAGONALIZATION
------------------------

Dimension of the eigenvalue problem            ...    135
Number of roots to be determined               ...      5
Maximum size of the expansion space            ...     50
Maximum number of iterations                   ...    100
Convergence tolerance for the residual         ...    2.500e-07
Convergence tolerance for the energies         ...    2.500e-07
Orthogonality tolerance                        ...    1.000e-14
Level Shift                                    ...    0.000e+00
Constructing the preconditioner                ... o.k.
Building the initial guess                     ... o.k.
Number of trial vectors determined             ...     50


                       ****Iteration    0****

Building the sigma vectors                     ... 
   Memory handling for direct AO based CIS:
   Memory per vector needed      ...     1 MB
   Memory needed                 ...     0 MB
   Memory available              ...  1000 MB
   Number of vectors per batch   ...  1000
   Number of batches             ...     1
   Time for densities:            0.000
   Time for RI-J (Direct):        0.024
Average shell size            =     6.782 au
Total number of shells        =        17    
Av no of R-interacting shells =        17 
Av no of P-interacting shells =        17 
Av no of primary shells       =        15 
Av no of secondary shells     =        17 
Av no of tertiary shells      =        17 
Integration Timings:
Total Time                    =     0.0 sec
Basis fcn evaluation          =     0.0 sec
Density evaluation            =     0.0 sec
Integral evaluation           =     0.0 sec
K(P) evaluation               =     0.0 sec
   Time for K (COSX):             0.050
   Time for XC-Integration:       0.026
   Time for Sigma-Completion:     0.000

--------------------------------------------------
SOLUTION IN THE SPACE OF THE INITIAL TRIAL VECTORS
--------------------------------------------------

Ordering of basis states:
Basis-state  0:  15->16 (op=0)
Basis-state  1:  14->16 (op=0)
Basis-state  2:  13->16 (op=0)
Basis-state  3:  12->16 (op=0)
Basis-state  4:  11->16 (op=0)
Basis-state  5:  10->16 (op=0)
Basis-state  6:  15->17 (op=0)
Basis-state  7:  14->17 (op=0)
Basis-state  8:  13->17 (op=0)
Basis-state  9:  15->18 (op=0)
Basis-state 10:  14->18 (op=0)
Basis-state 11:  13->18 (op=0)
Basis-state 12:  12->17 (op=0)
Basis-state 13:  11->17 (op=0)
Basis-state 14:  9->16 (op=0)

The initial Hamiltonian (eV):
                  0          1          2          3          4          5    
      0       2.765719   0.034996  -0.000002   0.154795   0.147702  -0.000000
      1       0.034996   3.110837  -0.000004  -0.015423   0.063657  -0.000000
      2      -0.000002  -0.000004  11.188778  -0.000000  -0.000001  -0.164454
      3       0.154795  -0.015423  -0.000000   7.241709  -0.093910   0.000001
      4       0.147702   0.063657  -0.000001  -0.093910   7.268463  -0.000003
      5      -0.000000  -0.000000  -0.164454   0.000001  -0.000003  11.539556
      6      -0.000000  -0.000000   0.642713   0.000000  -0.000000   0.483872
      7      -0.000001  -0.000002   4.943326  -0.000000  -0.000001  -0.210283
      8      -0.009481   0.130694   0.000003   0.031627  -0.062099   0.000000
      9      -0.000001  -0.000002   4.600678  -0.000000  -0.000001  -0.120032
     10       0.000000   0.000000  -0.315299  -0.000000   0.000001  -0.992959
     11       0.055380  -0.019754   0.000002  -0.093534  -0.064910  -0.000000
     12       0.000000   0.000001  -1.875565   0.000000  -0.000001   1.656455
     13      -0.000000  -0.000001   1.702623   0.000001  -0.000002   2.289944
     14       0.473827   0.050761   0.000001   0.045472   0.014811   0.000000
                  6          7          8          9         10         11    
      0      -0.000000  -0.000001  -0.009481  -0.000001   0.000000   0.055380
      1      -0.000000  -0.000002   0.130694  -0.000002   0.000000  -0.019754
      2       0.642713   4.943326   0.000003   4.600678  -0.315299   0.000002
      3       0.000000  -0.000000   0.031627  -0.000000  -0.000000  -0.093534
      4      -0.000000  -0.000001  -0.062099  -0.000001   0.000001  -0.064910
      5       0.483872  -0.210283   0.000000  -0.120032  -0.992959  -0.000000
      6       7.654587   0.440705   0.000000   0.391586  -0.064953   0.000000
      7       0.440705  11.232785   0.000002   2.977188  -0.166551   0.000001
      8       0.000000   0.000002   8.092934   0.000002  -0.000000   0.014397
      9       0.391586   2.977188   0.000002  11.472072  -0.195030   0.000001
     10      -0.064953  -0.166551  -0.000000  -0.195030   9.535749   0.000000
     11       0.000000   0.000001   0.014397   0.000001   0.000000   9.296393
     12       0.117852  -1.253080  -0.000000  -1.085018  -0.427692  -0.000001
     13       0.467249   0.996620   0.000001   1.011755  -0.746191   0.000000
     14       0.000000   0.000001  -0.034919   0.000000  -0.000000   0.051345
                 12         13         14    
      0       0.000000  -0.000000   0.473827
      1       0.000001  -0.000001   0.050761
      2      -1.875565   1.702623   0.000001
      3       0.000000   0.000001   0.045472
      4      -0.000001  -0.000002   0.014811
      5       1.656455   2.289944   0.000000
      6       0.117852   0.467249   0.000000
      7      -1.253080   0.996620   0.000001
      8      -0.000000   0.000001  -0.034919
      9      -1.085018   1.011755   0.000000
     10      -0.427692  -0.746191  -0.000000
     11      -0.000001   0.000000   0.051345
     12      13.085744   0.522249  -0.000000
     13       0.522249  13.744608   0.000001
     14      -0.000000   0.000001  14.098742

The eigenvalues of the initial Hamiltonian (eV):
E[  0] =       2.7326 eV      22038.3 cm**-1
E[  1] =       3.1087 eV      25071.4 cm**-1
E[  2] =       5.7311 eV      46221.5 cm**-1
E[  3] =       7.1642 eV      57779.0 cm**-1
E[  4] =       7.3449 eV      59236.2 cm**-1
E[  5] =       7.5312 eV      60739.4 cm**-1
E[  6] =       8.1021 eV      65343.5 cm**-1
E[  7] =       8.3991 eV      67738.7 cm**-1
E[  8] =       9.0777 eV      73211.3 cm**-1
E[  9] =       9.3024 eV      75024.2 cm**-1
E[ 10] =       9.9034 eV      79871.0 cm**-1
E[ 11] =      11.5795 eV      93388.6 cm**-1
E[ 12] =      14.1200 eV     113877.7 cm**-1
E[ 13] =      16.1403 eV     130171.6 cm**-1
E[ 14] =      21.0916 eV     170103.4 cm**-1

The eigenvectors of the initial Hamiltonian (eV):
                  0          1          2          3          4          5    
      0      -0.994438  -0.083563  -0.000000   0.048054   0.002481   0.000000
      1       0.084239  -0.995947  -0.000000   0.007897   0.016494  -0.000000
      2      -0.000000  -0.000000   0.790957  -0.000000  -0.000000   0.009089
      3       0.034892  -0.000512   0.000000   0.755693  -0.650895  -0.000000
      4       0.031873   0.018522   0.000000   0.650773   0.753886   0.000000
      5      -0.000000  -0.000000   0.013021   0.000000   0.000001  -0.124273
      6       0.000000  -0.000000  -0.072564   0.000000  -0.000000   0.983141
      7      -0.000000  -0.000000  -0.485633   0.000000   0.000000  -0.120828
      8      -0.003408   0.026255  -0.000000   0.015978   0.087516  -0.000000
      9      -0.000000  -0.000000  -0.350982   0.000000   0.000000  -0.024405
     10      -0.000000   0.000000   0.023683  -0.000000   0.000000  -0.048353
     11       0.009144  -0.002375  -0.000000   0.051919  -0.006748  -0.000000
     12      -0.000000  -0.000000   0.071430  -0.000000  -0.000000  -0.015371
     13       0.000000  -0.000000  -0.065283   0.000000   0.000000  -0.011783
     14       0.040847   0.008275  -0.000000  -0.009990   0.002935  -0.000000
                  6          7          8          9         10         11    
      0      -0.002022   0.000000  -0.000000   0.005944   0.000000   0.000000
      1       0.025042   0.000000  -0.000000  -0.003181   0.000000   0.000000
      2      -0.000000  -0.076310   0.009295  -0.000000  -0.008697  -0.149496
      3       0.045796   0.000000   0.000000  -0.043530  -0.000000   0.000000
      4      -0.076708   0.000000  -0.000000  -0.029971   0.000000   0.000000
      5      -0.000000  -0.005093   0.497877   0.000000  -0.659560   0.021018
      6       0.000000  -0.062844   0.106511   0.000000  -0.049353  -0.034777
      7      -0.000001  -0.659873   0.031199  -0.000000  -0.005912  -0.226765
      8       0.995592  -0.000001   0.000000   0.012202  -0.000000  -0.000000
      9       0.000000   0.743878   0.039805  -0.000000  -0.011657  -0.265705
     10      -0.000000   0.000757   0.845798  -0.000000   0.495399   0.025777
     11      -0.012321   0.000000  -0.000000   0.998448   0.000000  -0.000000
     12      -0.000000  -0.033262  -0.076848  -0.000000   0.324845  -0.760886
     13       0.000000   0.017568  -0.129809  -0.000000   0.459733   0.523800
     14       0.005693   0.000000   0.000000  -0.010648  -0.000000  -0.000000
                 12         13         14    
      0       0.041900  -0.000000  -0.000000
      1       0.004659   0.000000  -0.000000
      2      -0.000000   0.026964   0.587574
      3       0.007322  -0.000000  -0.000000
      4       0.002954   0.000000  -0.000000
      5      -0.000000  -0.548640  -0.003381
      6      -0.000000  -0.069584   0.066241
      7      -0.000000   0.045561   0.509532
      8      -0.005719  -0.000000   0.000000
      9      -0.000000   0.027170   0.499804
     10       0.000000   0.184721  -0.039001
     11       0.010897   0.000000   0.000000
     12      -0.000000  -0.482283  -0.265672
     13      -0.000000  -0.651070   0.262350
     14       0.999004  -0.000000   0.000000

o.k.
Building the Hamiltonian                       ... o.k.
Diagonalizing the Hamiltonian                  ... o.k.
   Size of expansion space: 15
   lowest eigenvalues of A:
    E[ 0] =     0.1004231628 (change=   0.1004231628)  2.733 eV
    E[ 1] =     0.1142442977 (change=   0.1142442977)  3.109 eV
    E[ 2] =     0.2106203108 (change=   0.2106203108)  5.731 eV
    E[ 3] =     0.2632847017 (change=   0.2632847017)  7.164 eV
    E[ 4] =     0.2699251648 (change=   0.2699251648)  7.345 eV
   Lowest Energy          :     0.100423162835
   Maximum Energy change  :     0.269925164789 (vector 4)
   Maximum residual norm  :     0.006831409845
   Repeating orthogonalization (< 0| 1>=9.018178e-05)
   Repeating orthogonalization (< 1|15>=2.819672e-01)
   Repeating orthogonalization (< 2| 2>=2.677127e-04)
   Repeating orthogonalization (< 3|15>=5.108565e-01)
   Repeating orthogonalization (< 4|16>=2.810511e-01)
Storing the current CI vectors                 ... o.k.

                       ****Iteration    1****

Building the sigma vectors                     ...    Time for densities:            0.000
   Time for RI-J (Direct):        0.018
Average shell size            =     6.782 au
Total number of shells        =        17    
Av no of R-interacting shells =        17 
Av no of P-interacting shells =        17 
Av no of primary shells       =        15 
Av no of secondary shells     =        17 
Av no of tertiary shells      =        17 
Integration Timings:
Total Time                    =     0.0 sec
Basis fcn evaluation          =     0.0 sec
Density evaluation            =     0.0 sec
Integral evaluation           =     0.0 sec
K(P) evaluation               =     0.0 sec
   Time for K (COSX):             0.042
   Time for XC-Integration:       0.011
   Time for Sigma-Completion:     0.000
o.k.
Building the Hamiltonian                       ... o.k.
Diagonalizing the Hamiltonian                  ... o.k.
   Size of expansion space: 20
   lowest eigenvalues of A:
    E[ 0] =     0.0994979601 (change=  -0.0009252027)  2.707 eV
    E[ 1] =     0.1138077584 (change=  -0.0004365393)  3.097 eV
    E[ 2] =     0.2039999084 (change=  -0.0066204024)  5.551 eV
    E[ 3] =     0.2623530298 (change=  -0.0009316719)  7.139 eV
    E[ 4] =     0.2679607776 (change=  -0.0019643872)  7.291 eV
   Lowest Energy          :     0.099497960100
   Maximum Energy change  :     0.006620402437 (vector 2)
   Maximum residual norm  :     0.000089502253
   Repeating orthogonalization (< 0|18>=1.224310e-01)
   Repeating orthogonalization (< 1|20>=5.845664e-01)
   Repeating orthogonalization (< 2|17>=2.846879e-01)
   Repeating orthogonalization (< 3|20>=5.162526e-01)
   Repeating orthogonalization (< 4|19>=1.157313e-01)
Storing the current CI vectors                 ... o.k.

                       ****Iteration    2****

Building the sigma vectors                     ...    Time for densities:            0.000
   Time for RI-J (Direct):        0.018
Average shell size            =     6.782 au
Total number of shells        =        17    
Av no of R-interacting shells =        17 
Av no of P-interacting shells =        17 
Av no of primary shells       =        15 
Av no of secondary shells     =        17 
Av no of tertiary shells      =        17 
Integration Timings:
Total Time                    =     0.0 sec
Basis fcn evaluation          =     0.0 sec
Density evaluation            =     0.0 sec
Integral evaluation           =     0.0 sec
K(P) evaluation               =     0.0 sec
   Time for K (COSX):             0.042
   Time for XC-Integration:       0.011
   Time for Sigma-Completion:     0.000
o.k.
Building the Hamiltonian                       ... o.k.
Diagonalizing the Hamiltonian                  ... o.k.
   Size of expansion space: 25
   lowest eigenvalues of A:
    E[ 0] =     0.0994969313 (change=  -0.0000010288)  2.707 eV
    E[ 1] =     0.1138076577 (change=  -0.0000001007)  3.097 eV
    E[ 2] =     0.2038934579 (change=  -0.0001064505)  5.548 eV
    E[ 3] =     0.2623507049 (change=  -0.0000023249)  7.139 eV
    E[ 4] =     0.2679550286 (change=  -0.0000057489)  7.291 eV
   Lowest Energy          :     0.099496931265
   Maximum Energy change  :     0.000106450541 (vector 2)
   Maximum residual norm  :     0.000000143682

      *** CONVERGENCE OF RESIDUAL NORM REACHED ***

Storing the converged CI vectors               ... ORCA.cis1

                 *** DAVIDSON DONE ***

Total time for solving the CIS problem:     0.254sec

------------------------------------
TD-DFT/TDA EXCITED STATES (SINGLETS)
------------------------------------

the weight of the individual excitations are printed if larger than 1.0e-02

STATE  1:  E=   0.099497 au      2.707 eV    21837.1 cm**-1 <S**2> =   0.000000
    15a ->  16a  :     0.989534 (c=  0.99475341)

STATE  2:  E=   0.113808 au      3.097 eV    24977.9 cm**-1 <S**2> =   0.000000
    14a ->  16a  :     0.992914 (c=  0.99645051)

STATE  3:  E=   0.203893 au      5.548 eV    44749.4 cm**-1 <S**2> =   0.000000
    13a ->  16a  :     0.682521 (c=  0.82614821)
    14a ->  17a  :     0.189082 (c= -0.43483507)
    15a ->  18a  :     0.105904 (c= -0.32542949)

STATE  4:  E=   0.262351 au      7.139 eV    57579.3 cm**-1 <S**2> =   0.000000
    11a ->  16a  :     0.398752 (c=  0.63146774)
    12a ->  16a  :     0.595331 (c=  0.77157669)

STATE  5:  E=   0.267955 au      7.291 eV    58809.3 cm**-1 <S**2> =   0.000000
    11a ->  16a  :     0.593799 (c= -0.77058374)
    12a ->  16a  :     0.398744 (c=  0.63146203)


                  ********************************
                  * Entering triplet calculation *
                  ********************************

Entering Solve()
   ... Initialized Buffers
------------------------
DAVIDSON-DIAGONALIZATION
------------------------

Dimension of the eigenvalue problem            ...    135
Number of roots to be determined               ...      5
Maximum size of the expansion space            ...     50
Maximum number of iterations                   ...    100
Convergence tolerance for the residual         ...    2.500e-07
Convergence tolerance for the energies         ...    2.500e-07
Orthogonality tolerance                        ...    1.000e-14
Level Shift                                    ...    0.000e+00
Constructing the preconditioner                ... o.k.
Building the initial guess                     ... o.k.
Number of trial vectors determined             ...     50


                       ****Iteration    0****

Building the sigma vectors                     ...                 <<< Triplet sigma vectors requested >>>

   Memory handling for direct AO based CIS:
   Memory per vector needed      ...     1 MB
   Memory needed                 ...     0 MB
   Memory available              ...  1000 MB
   Number of vectors per batch   ...  1000
   Number of batches             ...     1
   Time for densities:            0.000
Average shell size            =     6.782 au
Total number of shells        =        17    
Av no of R-interacting shells =        17 
Av no of P-interacting shells =        17 
Av no of primary shells       =        15 
Av no of secondary shells     =        17 
Av no of tertiary shells      =        17 
Integration Timings:
Total Time                    =     0.0 sec
Basis fcn evaluation          =     0.0 sec
Density evaluation            =     0.0 sec
Integral evaluation           =     0.0 sec
K(P) evaluation               =     0.0 sec
   Time for K (COSX):             0.049
   Time for XC-Integration:       0.026
   Time for Sigma-Completion:     0.000

--------------------------------------------------
SOLUTION IN THE SPACE OF THE INITIAL TRIAL VECTORS
--------------------------------------------------

Ordering of basis states:
Basis-state  0:  15->16 (op=0)
Basis-state  1:  14->16 (op=0)
Basis-state  2:  13->16 (op=0)
Basis-state  3:  12->16 (op=0)
Basis-state  4:  11->16 (op=0)
Basis-state  5:  10->16 (op=0)
Basis-state  6:  15->17 (op=0)
Basis-state  7:  14->17 (op=0)
Basis-state  8:  13->17 (op=0)
Basis-state  9:  15->18 (op=0)
Basis-state 10:  14->18 (op=0)
Basis-state 11:  13->18 (op=0)
Basis-state 12:  12->17 (op=0)
Basis-state 13:  11->17 (op=0)
Basis-state 14:  9->16 (op=0)

The initial Hamiltonian (eV):
                  0          1          2          3          4          5    
      0       1.891278  -0.003665   0.000000   0.001296   0.004640   0.000000
      1      -0.003665   2.507695   0.000000   0.012595  -0.003000   0.000000
      2       0.000000   0.000000   2.077576   0.000000   0.000000   0.011748
      3       0.001296   0.012595   0.000000   6.295974   0.058943  -0.000000
      4       0.004640  -0.003000   0.000000   0.058943   6.385573   0.000000
      5       0.000000   0.000000   0.011748  -0.000000   0.000000   6.105767
      6       0.000000   0.000000  -0.011203  -0.000000   0.000000   0.038905
      7       0.000000   0.000000  -0.136649   0.000000   0.000000   0.011045
      8      -0.021926  -0.215539  -0.000000   0.066792  -0.055003  -0.000000
      9       0.000000   0.000000  -0.112169  -0.000000   0.000000  -0.010934
     10       0.000000  -0.000000   0.012425  -0.000000  -0.000000   0.037082
     11      -0.183629   0.018132  -0.000000   0.031098   0.032572  -0.000000
     12      -0.000000   0.000000   0.032838  -0.000000  -0.000000  -0.055677
     13       0.000000   0.000000  -0.022231   0.000000   0.000000  -0.099055
     14      -0.041003  -0.000568  -0.000000   0.035842   0.042096  -0.000000
                  6          7          8          9         10         11    
      0       0.000000   0.000000  -0.021926   0.000000   0.000000  -0.183629
      1       0.000000   0.000000  -0.215539   0.000000  -0.000000   0.018132
      2      -0.011203  -0.136649  -0.000000  -0.112169   0.012425  -0.000000
      3      -0.000000   0.000000   0.066792  -0.000000  -0.000000   0.031098
      4       0.000000   0.000000  -0.055003   0.000000  -0.000000   0.032572
      5       0.038905   0.011045  -0.000000  -0.010934   0.037082  -0.000000
      6       6.805323   0.060183   0.000000  -0.064355   0.073415   0.000000
      7       0.060183   7.165553  -0.000000   0.125947   0.046906   0.000000
      8       0.000000  -0.000000   7.503349   0.000000   0.000000  -0.000655
      9      -0.064355   0.125947   0.000000   7.903137  -0.058533  -0.000000
     10       0.073415   0.046906   0.000000  -0.058533   8.704529  -0.000000
     11       0.000000   0.000000  -0.000655  -0.000000  -0.000000   8.889602
     12       0.102604   0.015032   0.000000   0.174711  -0.124262  -0.000000
     13      -0.041290  -0.126365  -0.000000  -0.184439  -0.162301  -0.000000
     14      -0.000000  -0.000000   0.010131   0.000000   0.000000  -0.034402
                 12         13         14    
      0      -0.000000   0.000000  -0.041003
[...]
   1 O :   -0.408700
   2 O :   -0.428316
Sum of atomic charges:    0.0000000

--------------------------------
MULLIKEN REDUCED ORBITAL CHARGES
--------------------------------
  0 S s       :     5.903181  s :     5.903181
      pz      :     3.103813  p :     9.259803
      px      :     3.481558
      py      :     2.674431
  1 O s       :     4.002323  s :     4.002323
      pz      :     1.505575  p :     4.406378
      px      :     1.759185
      py      :     1.141617
  2 O s       :     4.010786  s :     4.010786
      pz      :     1.598511  p :     4.417530
      px      :     1.754922
      py      :     1.064097


                     *******************************
                     * LOEWDIN POPULATION ANALYSIS *
                     *******************************

----------------------
LOEWDIN ATOMIC CHARGES
----------------------
   0 S :    0.806812
   1 O :   -0.397592
   2 O :   -0.409220

-------------------------------
LOEWDIN REDUCED ORBITAL CHARGES
-------------------------------
  0 S s       :     5.714895  s :     5.714895
      pz      :     3.202402  p :     9.478293
      px      :     3.465194
      py      :     2.810697
  1 O s       :     3.811925  s :     3.811925
      pz      :     1.547277  p :     4.585667
      px      :     1.767825
      py      :     1.270564
  2 O s       :     3.830546  s :     3.830546
      pz      :     1.640265  p :     4.578674
      px      :     1.762646
      py      :     1.175763


                      *****************************
                      * MAYER POPULATION ANALYSIS *
                      *****************************

  NA   - Mulliken gross atomic population
  ZA   - Total nuclear charge
  QA   - Mulliken gross atomic charge
  VA   - Mayer's total valence
  BVA  - Mayer's bonded valence
  FA   - Mayer's free valence

  ATOM       NA         ZA         QA         VA         BVA        FA
  0 S     15.1630    16.0000     0.8370     2.5058     1.9699     0.5359
  1 O      8.4087     8.0000    -0.4087     1.9156     1.1980     0.7175
  2 O      8.4283     8.0000    -0.4283     1.8732     1.1554     0.7178

  Mayer bond orders larger than 0.100000
B(  0-S ,  1-O ) :   1.0063 B(  0-S ,  2-O ) :   0.9637 B(  1-O ,  2-O ) :   0.1918 



                            ------------------
                              TRIPLET ROOT 4
                            ------------------

------------------------
TD-DFT GRADIENT XC SETUP
------------------------

Building densities                     ... done
Calculating rho(r) on the grid         ... done
Building xc-kernel on the grid         ... done
Building xc 3rd derivative on the grid      ... done
                *** TD-DFT GRADIENT CALCULATION INITIALIZED ***

-------------------
TD-DFT/TDA GRADIENT
-------------------

Reference wavefunction             ... RHF
State of interest (triplet)        ... 4
Basis dimension                    ... 31
DFT-XC contribution needed         ... YES
RI-approximation                   ... ON
CIS-vectors being read from        ... ORCA.cis

 => Number of Vectors found: 10
 => Orbital Window: 7...15 -> 16...30

Reading the CIS file                     ... done
Norm of the CI vector                    ... 1.000000000
Making the CIS (pseudo)densities         ... done
Making operators G(D) and Q(T)           ... done
Transforming the Fock operators          ... done
Making the frozen-core relaxed density   ... done
Constructing the G(H) operator           ... done
Transforming the G(H) operator           ... done
Calculating the CIS Lagrangian           ... done
Solving the Z-vector equations           ... done
Finalizing the relaxed density           ... done
Storing the relaxed density              ... done
Constructing the G(Z) operator           ... done
Transforming the G(Z) operator           ... done
Making the W-matrix                      ... done
Finalizing the W-matrix                  ... done
Transforming the W-matrix                ... done
Nuclear repulsion gradient               ... done
One-Electron gradient                    ... done
Dispersion correction                    ... done
Prescreening matrices                    ... done
COSX-gradient                            ... done
Coulomb gradient (RI)                    ... done
Exchange-Correlation gradient            ... done

                 ---------------------------
                 EXCITED STATE GRADIENT DONE
                 ---------------------------

------------------
CARTESIAN GRADIENT
------------------

   1   S   :    0.000000034    0.084277559    0.226683142
   2   O   :   -0.000000024   -0.221290705   -0.132275142
   3   O   :   -0.000000012    0.136988261   -0.094153122

Difference to translation invariance:
           :   -0.0000000026   -0.0000248853    0.0002548777

Difference to rotation invariance:
           :   -0.0000578632   -0.0000000539    0.0000000296

Norm of the cartesian gradient     ...    0.3906210913
RMS gradient                       ...    0.1302070304
MAX gradient                       ...    0.2266831419

------------------------------------------------------------------------------
                  RELAXED CIS/TDA DENSITY POPULATION ANALYSIS
                                TRIPLET IROOT 4
------------------------------------------------------------------------------
------------------------------------------------------------------------------
                           ORCA POPULATION ANALYSIS
------------------------------------------------------------------------------
Input electron density              ... ORCA.cisp
BaseName (.gbw .S,...)              ... ORCA

                    ********************************
                    * MULLIKEN POPULATION ANALYSIS *
                    ********************************

-----------------------
MULLIKEN ATOMIC CHARGES
-----------------------
   0 S :    1.019168
   1 O :   -0.490211
   2 O :   -0.528957
Sum of atomic charges:    0.0000000

--------------------------------
MULLIKEN REDUCED ORBITAL CHARGES
--------------------------------
  0 S s       :     5.923152  s :     5.923152
      pz      :     3.203320  p :     9.057680
      px      :     3.015003
      py      :     2.839356
  1 O s       :     4.001146  s :     4.001146
      pz      :     1.713447  p :     4.489065
      px      :     1.463595
      py      :     1.312022
  2 O s       :     4.009683  s :     4.009683
      pz      :     1.683500  p :     4.519275
      px      :     1.521401
      py      :     1.314374


                     *******************************
                     * LOEWDIN POPULATION ANALYSIS *
                     *******************************

----------------------
LOEWDIN ATOMIC CHARGES
----------------------
   0 S :    1.056816
   1 O :   -0.512616
   2 O :   -0.544200

-------------------------------
LOEWDIN REDUCED ORBITAL CHARGES
-------------------------------
  0 S s       :     5.728361  s :     5.728361
      pz      :     3.282585  p :     9.214823
      px      :     3.001821
      py      :     2.930417
  1 O s       :     3.818599  s :     3.818599
      pz      :     1.768336  p :     4.694018
      px      :     1.470335
      py      :     1.455347
  2 O s       :     3.836502  s :     3.836502
      pz      :     1.740328  p :     4.707698
      px      :     1.527845
      py      :     1.439525


                      *****************************
                      * MAYER POPULATION ANALYSIS *
                      *****************************

  NA   - Mulliken gross atomic population
  ZA   - Total nuclear charge
  QA   - Mulliken gross atomic charge
  VA   - Mayer's total valence
  BVA  - Mayer's bonded valence
  FA   - Mayer's free valence

  ATOM       NA         ZA         QA         VA         BVA        FA
  0 S     14.9808    16.0000     1.0192     2.9296     1.9247     1.0049
  1 O      8.4902     8.0000    -0.4902     1.8092     1.2770     0.5322
  2 O      8.5290     8.0000    -0.5290     1.7864     1.3171     0.4693

  Mayer bond orders larger than 0.100000
B(  0-S ,  1-O ) :   0.9423 B(  0-S ,  2-O ) :   0.9824 B(  1-O ,  2-O ) :   0.3347 



                            ------------------
                              TRIPLET ROOT 5
                            ------------------

------------------------
TD-DFT GRADIENT XC SETUP
------------------------

Building densities                     ... done
Calculating rho(r) on the grid         ... done
Building xc-kernel on the grid         ... done
Building xc 3rd derivative on the grid      ... done
                *** TD-DFT GRADIENT CALCULATION INITIALIZED ***

-------------------
TD-DFT/TDA GRADIENT
-------------------

Reference wavefunction             ... RHF
State of interest (triplet)        ... 5
Basis dimension                    ... 31
DFT-XC contribution needed         ... YES
RI-approximation                   ... ON
CIS-vectors being read from        ... ORCA.cis

 => Number of Vectors found: 10
 => Orbital Window: 7...15 -> 16...30

Reading the CIS file                     ... done
Norm of the CI vector                    ... 1.000000000
Making the CIS (pseudo)densities         ... done
Making operators G(D) and Q(T)           ... done
Transforming the Fock operators          ... done
Making the frozen-core relaxed density   ... done
Constructing the G(H) operator           ... done
Transforming the G(H) operator           ... done
Calculating the CIS Lagrangian           ... done
Solving the Z-vector equations           ... done
Finalizing the relaxed density           ... done
Storing the relaxed density              ... done
Constructing the G(Z) operator           ... done
Transforming the G(Z) operator           ... done
Making the W-matrix                      ... done
Finalizing the W-matrix                  ... done
Transforming the W-matrix                ... done
Nuclear repulsion gradient               ... done
One-Electron gradient                    ... done
Dispersion correction                    ... done
Prescreening matrices                    ... done
COSX-gradient                            ... done
Coulomb gradient (RI)                    ... done
Exchange-Correlation gradient            ... done

                 ---------------------------
                 EXCITED STATE GRADIENT DONE
                 ---------------------------

------------------
CARTESIAN GRADIENT
------------------

   1   S   :    0.000000025    0.052167526    0.177122866
   2   O   :    0.000000004   -0.158855104   -0.108236545
   3   O   :   -0.000000023    0.099460689   -0.084898438

Difference to translation invariance:
           :    0.0000000052   -0.0072268887   -0.0160121173

Difference to rotation invariance:
           :    0.0080506174   -0.0000000322   -0.0000000655

Norm of the cartesian gradient     ...    0.2968909365
RMS gradient                       ...    0.0989636455
MAX gradient                       ...    0.1771228665

------------------------------------------------------------------------------
                  RELAXED CIS/TDA DENSITY POPULATION ANALYSIS
                                TRIPLET IROOT 5
------------------------------------------------------------------------------
------------------------------------------------------------------------------
                           ORCA POPULATION ANALYSIS
------------------------------------------------------------------------------
Input electron density              ... ORCA.cisp
BaseName (.gbw .S,...)              ... ORCA

                    ********************************
                    * MULLIKEN POPULATION ANALYSIS *
                    ********************************

-----------------------
MULLIKEN ATOMIC CHARGES
-----------------------
   0 S :    0.947169
   1 O :   -0.449806
   2 O :   -0.497363
Sum of atomic charges:    0.0000000

--------------------------------
MULLIKEN REDUCED ORBITAL CHARGES
--------------------------------
  0 S s       :     5.882127  s :     5.882127
      pz      :     3.114420  p :     9.170704
      px      :     3.517917
      py      :     2.538367
  1 O s       :     3.864527  s :     3.864527
      pz      :     1.642810  p :     4.585279
      px      :     1.766247
      py      :     1.176222
  2 O s       :     3.943660  s :     3.943660
      pz      :     1.533196  p :     4.553703
      px      :     1.699296
      py      :     1.321211


                     *******************************
                     * LOEWDIN POPULATION ANALYSIS *
                     *******************************

----------------------
LOEWDIN ATOMIC CHARGES
----------------------
   0 S :    0.894679
   1 O :   -0.420316
   2 O :   -0.474364

-------------------------------
LOEWDIN REDUCED ORBITAL CHARGES
-------------------------------
  0 S s       :     5.701272  s :     5.701272
      pz      :     3.211114  p :     9.404049
      px      :     3.500730
      py      :     2.692206
  1 O s       :     3.688735  s :     3.688735
      pz      :     1.677402  p :     4.731580
      px      :     1.774806
      py      :     1.279373
  2 O s       :     3.769995  s :     3.769995
      pz      :     1.568902  p :     4.704369
      px      :     1.707923
      py      :     1.427544


                      *****************************
                      * MAYER POPULATION ANALYSIS *
                      *****************************

  NA   - Mulliken gross atomic population
  ZA   - Total nuclear charge
  QA   - Mulliken gross atomic charge
  VA   - Mayer's total valence
  BVA  - Mayer's bonded valence
  FA   - Mayer's free valence

  ATOM       NA         ZA         QA         VA         BVA        FA
  0 S     15.0528    16.0000     0.9472     2.4496     1.7389     0.7107
  1 O      8.4498     8.0000    -0.4498     1.7595     1.0500     0.7095
  2 O      8.4974     8.0000    -0.4974     1.8386     1.2467     0.5919

  Mayer bond orders larger than 0.100000
B(  0-S ,  1-O ) :   0.7711 B(  0-S ,  2-O ) :   0.9678 B(  1-O ,  2-O ) :   0.2789 



                            ------------------
                               GROUND STATE 
                            ------------------

 ... reading COSX grid (gridx3)
Gradient of the Kohn-Sham DFT energy:
Kohn-Sham wavefunction type      ... RKS
Hartree-Fock exchange scaling    ...    0.200
Number of operators              ...    1
Number of atoms                  ...    3
Basis set dimensions             ...   31
Integral neglect threshold       ... 2.5e-11
Integral primitive cutoff        ... 2.5e-12
SHARK Integral package           ... ON

Nuc. rep. gradient       (SHARK) ... done (  0.0 sec)
HCore & Overlap gradient (SHARK) ... done (  0.0 sec)
RI-J gradient            (SHARK) ... done (  0.1 sec)
COSX-gradient                    ... done (  0.2 sec)
Exchange-correlation gradient    ... done
Dispersion correction            ... done

------------------
CARTESIAN GRADIENT
------------------

   1   S   :    0.000000028    0.049703405    0.084306919
   2   O   :   -0.000000127   -0.089237453   -0.055057693
   3   O   :   -0.000000088    0.039173840   -0.029323609

Difference to translation invariance:
           :   -0.0000001872   -0.0003602086   -0.0000743839

Difference to rotation invariance:
           :    0.0003326229   -0.0000003210    0.0000000943

Norm of the cartesian gradient     ...    0.1515494028
RMS gradient                       ...    0.0505164676
MAX gradient                       ...    0.0892374535

-------
TIMINGS
-------

Total SCF gradient time            ...       19.559 sec

One electron gradient       ....       0.003 sec  (  0.0%)
Prescreening matrices       ....       0.167 sec  (  0.9%)
RI-J Coulomb gradient       ....       0.076 sec  (  0.4%)
COSX gradient               ....       0.193 sec  (  1.0%)
XC gradient                 ....       0.055 sec  (  0.3%)

Maximum memory used throughout the entire SCFGRAD-calculation: 121.2 MB

                            ***************************************
                            *     ORCA property calculations      *
                            ***************************************

                                    ---------------------
                                    Active property flags
                                    ---------------------
   (+) Dipole Moment


------------------------------------------------------------------------------
                       ORCA ELECTRIC PROPERTIES CALCULATION
------------------------------------------------------------------------------

Dipole Moment Calculation                       ... on
Quadrupole Moment Calculation                   ... off
Polarizability Calculation                      ... off
GBWName                                         ... ORCA.gbw
Electron density                                ... ORCA.scfp
The origin for moment calculation is the CENTER OF MASS  = ( 0.000000,  0.000000  0.755159)

-------------
DIPOLE MOMENT
-------------
                                X             Y             Z
Electronic contribution:      0.00000       0.03487      -0.92553
Nuclear contribution   :      0.00000       0.00000       0.02341
                        -----------------------------------------
Total Dipole Moment    :      0.00000       0.03487      -0.90212
                        -----------------------------------------
Magnitude (a.u.)       :      0.90280
Magnitude (Debye)      :      2.29473



--------------------
Rotational spectrum 
--------------------
 
Rotational constants in cm-1:     1.647766     0.311169     0.261741 
Rotational constants in MHz : 49398.787065  9328.599358  7846.790422 

 Dipole components along the rotational axes: 
x,y,z [a.u.] :    -0.077578    -0.899458     0.000000 
x,y,z [Debye]:    -0.197189    -2.286240     0.000000 

 

                        *** CIS RELAXED DENSITY ***

------------------------------------------------------------------------------
                       ORCA ELECTRIC PROPERTIES CALCULATION
------------------------------------------------------------------------------

Dipole Moment Calculation                       ... on
Quadrupole Moment Calculation                   ... off
Polarizability Calculation                      ... off
GBWName                                         ... ORCA.gbw
Electron density                                ... ORCA.cisp
The origin for moment calculation is the CENTER OF MASS  = ( 0.000000,  0.000000  0.755159)

-------------
DIPOLE MOMENT
-------------
                                X             Y             Z
Electronic contribution:     -0.00000       0.21808      -0.57993
Nuclear contribution   :      0.00000       0.00000       0.02341
                        -----------------------------------------
Total Dipole Moment    :     -0.00000       0.21808      -0.55652
                        -----------------------------------------
Magnitude (a.u.)       :      0.59772
Magnitude (Debye)      :      1.51929



--------------------
Rotational spectrum 
--------------------
 
Rotational constants in cm-1:     1.647766     0.311169     0.261741 
Rotational constants in MHz : 49398.787065  9328.599358  7846.790422 

 Dipole components along the rotational axes: 
x,y,z [a.u.] :    -0.244206    -0.545561    -0.000000 
x,y,z [Debye]:    -0.620721    -1.386705    -0.000000 

 

Timings for individual modules:

Sum of individual times         ...       26.389 sec (=   0.440 min)
GTO integral calculation        ...        0.673 sec (=   0.011 min)   2.6 %
Relativistic integrals          ...        0.481 sec (=   0.008 min)   1.8 %
SCF iterations                  ...        3.588 sec (=   0.060 min)  13.6 %
CIS module                      ...        1.607 sec (=   0.027 min)   6.1 %
SCF Gradient evaluation         ...       20.041 sec (=   0.334 min)  75.9 %
                             ****ORCA TERMINATED NORMALLY****
TOTAL RUN TIME: 0 days 0 hours 0 minutes 26 seconds 962 msec
