
                                 *****************
                                 * O   R   C   A *
                                 *****************

                                            #,                                       
                                            ###                                      
                                            ####                                     
                                            #####                                    
                                            ######                                   
                                           ########,                                 
                                     ,,################,,,,,                         
                               ,,#################################,,                 
                          ,,##########################################,,             
                       ,#########################################, ''#####,          
                    ,#############################################,,   '####,        
                  ,##################################################,,,,####,       
                ,###########''''           ''''###############################       
              ,#####''   ,,,,##########,,,,          '''####'''          '####       
            ,##' ,,,,###########################,,,                        '##       
           ' ,,###''''                  '''############,,,                           
         ,,##''                                '''############,,,,        ,,,,,,###''
      ,#''                                            '''#######################'''  
     '                                                          ''''####''''         
             ,#######,   #######,   ,#######,      ##                                
            ,#'     '#,  ##    ##  ,#'     '#,    #''#        ######   ,####,        
            ##       ##  ##   ,#'  ##            #'  '#       #        #'  '#        
            ##       ##  #######   ##           ,######,      #####,   #    #        
            '#,     ,#'  ##    ##  '#,     ,#' ,#      #,         ##   #,  ,#        
             '#######'   ##     ##  '#######'  #'      '#     #####' # '####'        



                  #######################################################
                  #                        -***-                        #
                  #          Department of theory and spectroscopy      #
                  #    Directorship and core code : Frank Neese         #
                  #        Max Planck Institute fuer Kohlenforschung    #
                  #                Kaiser Wilhelm Platz 1               #
                  #                 D-45470 Muelheim/Ruhr               #
                  #                      Germany                        #
                  #                                                     #
                  #                  All rights reserved                #
                  #                        -***-                        #
                  #######################################################


                         Program Version 5.0.4 -  RELEASE  -


 With contributions from (in alphabetic order):
   Daniel Aravena         : Magnetic Suceptibility
   Michael Atanasov       : Ab Initio Ligand Field Theory (pilot matlab implementation)
   Alexander A. Auer      : GIAO ZORA, VPT2 properties, NMR spectrum
   Ute Becker             : Parallelization
   Giovanni Bistoni       : ED, misc. LED, open-shell LED, HFLD
   Martin Brehm           : Molecular dynamics
   Dmytro Bykov           : SCF Hessian
   Vijay G. Chilkuri      : MRCI spin determinant printing, contributions to CSF-ICE
   Dipayan Datta          : RHF DLPNO-CCSD density
   Achintya Kumar Dutta   : EOM-CC, STEOM-CC
   Dmitry Ganyushin       : Spin-Orbit,Spin-Spin,Magnetic field MRCI
   Miquel Garcia          : C-PCM and meta-GGA Hessian, CC/C-PCM, Gaussian charge scheme
   Yang Guo               : DLPNO-NEVPT2, F12-NEVPT2, CIM, IAO-localization
   Andreas Hansen         : Spin unrestricted coupled pair/coupled cluster methods
   Benjamin Helmich-Paris : MC-RPA, TRAH-SCF, COSX integrals
   Lee Huntington         : MR-EOM, pCC
   Robert Izsak           : Overlap fitted RIJCOSX, COSX-SCS-MP3, EOM
   Marcus Kettner         : VPT2
   Christian Kollmar      : KDIIS, OOCD, Brueckner-CCSD(T), CCSD density, CASPT2, CASPT2-K
   Simone Kossmann        : Meta GGA functionals, TD-DFT gradient, OOMP2, MP2 Hessian
   Martin Krupicka        : Initial AUTO-CI
   Lucas Lang             : DCDCAS
   Marvin Lechner         : AUTO-CI (C++ implementation), FIC-MRCC
   Dagmar Lenk            : GEPOL surface, SMD
   Dimitrios Liakos       : Extrapolation schemes; Compound Job, initial MDCI parallelization
   Dimitrios Manganas     : Further ROCIS development; embedding schemes
   Dimitrios Pantazis     : SARC Basis sets
   Anastasios Papadopoulos: AUTO-CI, single reference methods and gradients
   Taras Petrenko         : DFT Hessian,TD-DFT gradient, ASA, ECA, R-Raman, ABS, FL, XAS/XES, NRVS
   Peter Pinski           : DLPNO-MP2, DLPNO-MP2 Gradient
   Christoph Reimann      : Effective Core Potentials
   Marius Retegan         : Local ZFS, SOC
   Christoph Riplinger    : Optimizer, TS searches, QM/MM, DLPNO-CCSD(T), (RO)-DLPNO pert. Triples
   Tobias Risthaus        : Range-separated hybrids, TD-DFT gradient, RPA, STAB
   Michael Roemelt        : Original ROCIS implementation
   Masaaki Saitow         : Open-shell DLPNO-CCSD energy and density
   Barbara Sandhoefer     : DKH picture change effects
   Avijit Sen             : IP-ROCIS
   Kantharuban Sivalingam : CASSCF convergence, NEVPT2, FIC-MRCI
   Bernardo de Souza      : ESD, SOC TD-DFT
   Georgi Stoychev        : AutoAux, RI-MP2 NMR, DLPNO-MP2 response
   Willem Van den Heuvel  : Paramagnetic NMR
   Boris Wezisla          : Elementary symmetry handling
   Frank Wennmohs         : Technical directorship


 We gratefully acknowledge several colleagues who have allowed us to
 interface, adapt or use parts of their codes:
   Stefan Grimme, W. Hujo, H. Kruse, P. Pracht,  : VdW corrections, initial TS optimization,
                  C. Bannwarth, S. Ehlert          DFT functionals, gCP, sTDA/sTD-DF
   Ed Valeev, F. Pavosevic, A. Kumar             : LibInt (2-el integral package), F12 methods
   Garnet Chan, S. Sharma, J. Yang, R. Olivares  : DMRG
   Ulf Ekstrom                                   : XCFun DFT Library
   Mihaly Kallay                                 : mrcc  (arbitrary order and MRCC methods)
   Jiri Pittner, Ondrej Demel                    : Mk-CCSD
   Frank Weinhold                                : gennbo (NPA and NBO analysis)
   Christopher J. Cramer and Donald G. Truhlar   : smd solvation model
   Lars Goerigk                                  : TD-DFT with DH, B97 family of functionals
   V. Asgeirsson, H. Jonsson                     : NEB implementation
   FAccTs GmbH                                   : IRC, NEB, NEB-TS, DLPNO-Multilevel, CI-OPT
                                                   MM, QMMM, 2- and 3-layer-ONIOM, Crystal-QMMM,
                                                   LR-CPCM, SF, NACMEs, symmetry and pop. for TD-DFT,
                                                   nearIR, NL-DFT gradient (VV10), updates on ESD,
                                                   ML-optimized integration grids
   S Lehtola, MJT Oliveira, MAL Marques          : LibXC Library
   Liviu Ungur et al                             : ANISO software


 Your calculation uses the libint2 library for the computation of 2-el integrals
 For citations please refer to: http://libint.valeyev.net

 Your ORCA version has been built with support for libXC version: 5.1.0
 For citations please refer to: https://tddft.org/programs/libxc/

 This ORCA versions uses:
   CBLAS   interface :  Fast vector & matrix operations
   LAPACKE interface :  Fast linear algebra routines
   SCALAPACK package :  Parallel linear algebra routines
   Shared memory     :  Shared parallel matrices
   BLAS/LAPACK       :  OpenBLAS 0.3.15  USE64BITINT DYNAMIC_ARCH NO_AFFINITY Zen SINGLE_THREADED
        Core in use  :  Zen
   Copyright (c) 2011-2014, The OpenBLAS Project


SCAN-COORDS
Your calculation utilizes the atom-pairwise dispersion correction
with the Becke-Johnson damping scheme (D3BJ)
Cite in your paper:
S.Grimme, S.Ehrlich, L.Goerigk, J Comput Chem, (2011), 32, 1456–1465 
S.Grimme, J.Antony, S.Ehrlich and H.Krieg, J.Chem.Phys., 132, (2010), 154104 
   

================================================================================

----- Orbital basis set information -----
Your calculation utilizes the basis: 6-31G
   H-He, Li-Ne : W. J. Hehre, R. Ditchfield and J.A. Pople, J. Chem. Phys. 56, 2257 (1972).
                 Note: He and Ne are unpublished basis sets taken from the Gaussian program.
                 Note: Li and B from J. D. Dill and J. A. Pople, J. Chem. Phys. 62, 2921 (1975).
   Na - Ar     : M. M. Francl, W. J. Pietro, W. J. Hehre, J. S. Binkley, M. S. Gordon, 
                 D. J. DeFrees and J. A. Pople, J. Chem. Phys. 77, 3654 (1982).
   K - Zn      : V. A. Rassolov, J. A. Pople, M. A. Ratner, and T. L. Windus, J. Chem. Phys. 109, 1223 (1998).

The basis set includes element-specific modifications.

Your calculation utilizes the basis: cc-pVQZ 
       H, B-Ne : Obtained from the ccRepo (grant-hill.group.shef.ac.uk/ccrepo) Feb. 2017
                 T. H. Dunning, Jr., J. Chem. Phys. 90, 1007 (1989)
            He : Obtained from the ccRepo (grant-hill.group.shef.ac.uk/ccrepo) Feb. 2017
                 D. E. Woon, T. H. Dunning, Jr., J. Chem. Phys. 100, 2975 (1994)
  Li-Be, Na-Mg : Obtained from the ccRepo (grant-hill.group.shef.ac.uk/ccrepo) Feb. 2017
                 B. P. Prascher, D. E. Woon, K. A. Peterson, T. H. Dunning, Jr., A. K. Wilson, Theor. Chem. Acc. 128, 69 (2011)
         Al-Ar : Obtained from the ccRepo (grant-hill.group.shef.ac.uk/ccrepo) Feb. 2017
                 D. E. Woon, T. H. Dunning, Jr., J. Chem. Phys. 98, 1358 (1993)
            Ca : Obtained from the Peterson Research Group Website (tyr0.chem.wsu.edu/~kipeters) Feb. 2017
                 J. Koput, K. A. Peterson, J. Phys. Chem. 106, 9595 (2002)
         Sc-Zn : Obtained from the ccRepo (grant-hill.group.shef.ac.uk/ccrepo) Feb. 2017
                 N. B. Balabanov, K. A. Peterson, J. Chem. Phys. 123, 064107 (2005)
                 N. B. Balabanov, K. A. Peterson, J. Chem. Phys. 125, 074110 (2006)
         Ga-Kr : Obtained from the ccRepo (grant-hill.group.shef.ac.uk/ccrepo) Feb. 2017
                 A. K. Wilson, D. E. Woon, K. A. Peterson, T. H. Dunning, Jr., J. Chem. Phys. 110, 7667 (1999)

----- AuxJ basis set information -----
Your calculation utilizes the auxiliary basis: SARC/J 
   decontracted def2/J up to Kr:
   F. Weigend, Phys. Chem. Chem. Phys. 8, 1057 (2006)
   and SARC auxiliary basis sets beyond Kr:
   D. A. Pantazis and F. Neese, J. Chem. Theory Comput. 5, 2229 (2009).
   D. A. Pantazis, X. Y. Chen, C. R. Landis and F. Neese, J. Chem. Theory Comput. 4, 908 (2008).
   D. A. Pantazis and F. Neese, Theor. Chem. Acc. 131, 1292 (2012).
   D. A. Pantazis and F. Neese, J. Chem. Theory Comput. 7, 677 (2011).

================================================================================
                                        WARNINGS
                       Please study these warnings very carefully!
================================================================================


WARNING: your system is open-shell and RHF/RKS was chosen
  ===> : WILL SWITCH to UHF/UKS


WARNING: In scalar relativistic gradient/hessian runs we need the one-center approximation
  ===> : %rel OneCenter is turned on

INFO   : the flag for use of the SHARK integral package has been found!

================================================================================
                                       INPUT FILE
================================================================================
NAME = ORCA.inp
|  1> ! 6-31G b3lyp D3 rijcosx tightscf zora nousesym engrad
|  2> %pal
|  3> 	nprocs 2
|  4> end
|  5> 
|  6> %maxcore 1000
|  7> 
|  8> %basis
|  9> 	newgto F "cc-pvqz" end
| 10> end
| 11> 
| 12> %method
| 13> 	frozencore -14
| 14> end
| 15> 
| 16> %output
| 17> 	Print[ P_MOs ] 1
| 18> end
| 19> 
| 20> %scf
| 21> 	maxiter 700
| 22> end
| 23> 
| 24> %coords
| 25> 	Ctyp xyz
| 26> 	units bohrs
| 27> 	charge 1
| 28> 	mult 2
| 29> 	coords
| 30> 	S         0.000000000      0.000000000      0.000000000
| 31> 	O         0.000000000      2.456643962      1.417294593
| 32> 	O         0.000000000     -2.456643962      1.606267206
| 33> end
| 34> end
| 35> 
| 36> 
| 37>                          ****END OF INPUT****
================================================================================

                     *******************************
                     * Energy+Gradient Calculation *
                     *******************************

---------------------------------
CARTESIAN COORDINATES (ANGSTROEM)
---------------------------------
  S      0.000000    0.000000    0.000000
  O      0.000000    1.300000    0.750000
  O      0.000000   -1.300000    0.850000

----------------------------
CARTESIAN COORDINATES (A.U.)
----------------------------
  NO LB      ZA    FRAG     MASS         X           Y           Z
   0 S    16.0000    0    32.060    0.000000    0.000000    0.000000
   1 O     8.0000    0    15.999    0.000000    2.456644    1.417295
   2 O     8.0000    0    15.999    0.000000   -2.456644    1.606267

--------------------------------
INTERNAL COORDINATES (ANGSTROEM)
--------------------------------
 S      0   0   0     0.000000000000     0.00000000     0.00000000
 O      1   0   0     1.500833094468     0.00000000     0.00000000
 O      1   2   0     1.553222449074   116.83984898     0.00000000

---------------------------
INTERNAL COORDINATES (A.U.)
---------------------------
 S      0   0   0     0.000000000000     0.00000000     0.00000000
 O      1   0   0     2.836163521269     0.00000000     0.00000000
 O      1   2   0     2.935165053809   116.83984898     0.00000000

---------------------
BASIS SET INFORMATION
---------------------
There are 2 groups of distinct atoms

 Group   1 Type S   : 16s10p contracted to 4s3p pattern {6631/631}
 Group   2 Type O   : 10s4p contracted to 3s2p pattern {631/31}

Atom   0S    basis set group =>   1
Atom   1O    basis set group =>   2
Atom   2O    basis set group =>   2
---------------------------------
AUXILIARY/J BASIS SET INFORMATION
---------------------------------
There are 2 groups of distinct atoms

 Group   1 Type S   : 14s5p5d2f1g contracted to 14s5p5d2f1g pattern {11111111111111/11111/11111/11/1}
 Group   2 Type O   : 12s5p4d2f1g contracted to 12s5p4d2f1g pattern {111111111111/11111/1111/11/1}

Atom   0S    basis set group =>   1
Atom   1O    basis set group =>   2
Atom   2O    basis set group =>   2


           ************************************************************
           *        Program running with 2 parallel MPI-processes     *
           *              working on a common directory               *
           ************************************************************
------------------------------------------------------------------------------
                           ORCA GTO INTEGRAL CALCULATION
                           -- RI-GTO INTEGRALS CHOSEN --
------------------------------------------------------------------------------
------------------------------------------------------------------------------
                   ___                                                        
                  /   \      - P O W E R E D   B Y -                         
                 /     \                                                     
                 |  |  |   _    _      __       _____    __    __             
                 |  |  |  | |  | |    /  \     |  _  \  |  |  /  |          
                  \  \/   | |  | |   /    \    | | | |  |  | /  /          
                 / \  \   | |__| |  /  /\  \   | |_| |  |  |/  /          
                |  |  |   |  __  | /  /__\  \  |    /   |      \           
                |  |  |   | |  | | |   __   |  |    \   |  |\   \          
                \     /   | |  | | |  |  |  |  | |\  \  |  | \   \       
                 \___/    |_|  |_| |__|  |__|  |_| \__\ |__|  \__/        
                                                                              
                      - O R C A' S   B I G   F R I E N D -                    
                                      &                                       
                       - I N T E G R A L  F E E D E R -                       
                                                                              
 v1 FN, 2020, v2 2021                                                         
------------------------------------------------------------------------------


Reading SHARK input file ORCA.SHARKINP.tmp ... ok
----------------------
SHARK INTEGRAL PACKAGE
----------------------

Number of atoms                             ...      3
Number of basis functions                   ...     31
Number of shells                            ...     17
Maximum angular momentum                    ...      1
Integral batch strategy                     ... SHARK/LIBINT Hybrid
RI-J (if used) integral strategy            ... SPLIT-RIJ (Revised 2003 algorithm where possible)
Printlevel                                  ...      1
Contraction scheme used                     ... SEGMENTED contraction
Coulomb Range Separation                    ... NOT USED
Exchange Range Separation                   ... NOT USED
Finite Nucleus Model                        ... NOT USED
Auxiliary Coulomb fitting basis             ... AVAILABLE
   # of basis functions in Aux-J            ...    217
   # of shells in Aux-J                     ...     75
   Maximum angular momentum in Aux-J        ...      4
Auxiliary J/K fitting basis                 ... NOT available
Auxiliary Correlation fitting basis         ... NOT available
Auxiliary 'external' fitting basis          ... NOT available
Integral threshold                          ...     2.500000e-11
Primitive cut-off                           ...     2.500000e-12
Primitive pair pre-selection threshold      ...     2.500000e-12

Calculating pre-screening integrals         ... done (  0.0 sec) Dimension = 17
Organizing shell pair data                  ... done (  0.0 sec)
Shell pair information
Total number of shell pairs                 ...       153
Shell pairs after pre-screening             ...       150
Total number of primitive shell pairs       ...      1578
Primitive shell pairs kept                  ...      1221
          la=0 lb=0:     52 shell pairs
          la=1 lb=0:     70 shell pairs
          la=1 lb=1:     28 shell pairs

Calculating one electron integrals          ... done (  0.0 sec)
Calculating RI/J V-Matrix + Cholesky decomp.... done (  0.0 sec)
Calculating Nuclear repulsion               ... done (  0.0 sec) ENN=    101.756797918274 Eh

SHARK setup successfully completed in   0.2 seconds

Maximum memory used throughout the entire GTOINT-calculation: 8.1 MB


           ************************************************************
           *        Program running with 2 parallel MPI-processes     *
           *              working on a common directory               *
           ************************************************************
------------------------------------------------------------------------------
                          ORCA RELATIVISTIC HAMILTONIAN
------------------------------------------------------------------------------

Relativistic Method            ... ZORA(MP)
Treatment of potential         ... Van Wuellen
Nucleus model                  ... Point Nucleus
Speed of light used            ... 137.03598950000000


            *************************************************
            *         ZERO ORDER REGULAR APPROXIMATION      *
            *                     ZORA(MP)                  *
            *            Programmed by FN according to      *
            *                   C. van Wuellen              *
            *       J. Chem. Phys. (1998) vol 109, 392-399  *
            *************************************************

Terms included in model potential: +V(e,N)+V(C)+V(Xa)+V(VWN-V)
Basis function cutoff value   ... 1.000000e-11
Loading the fitted atomic densities (ZORA)   ... done
Calculating the cutoffs                      ... done
Number of fit functions                      ... 38
One center approximation for ZORA is active
Finding unique atoms                  ... 2 atom types
AtomType   0 (S ) Member=  0 NMembers=   1, NRad=2000 NumBF= 13
             ... doing numerical integration
             ... adding submatrices to 1 actual atoms
AtomType   1 (O ) Member=  1 NMembers=   2, NRad=2000 NumBF=  9
             ... doing numerical integration
             ... adding submatrices to 2 actual atoms
             ... done with one-center part

Maximum memory used throughout the entire REL-calculation: 0.5 MB


           ************************************************************
           *        Program running with 2 parallel MPI-processes     *
           *              working on a common directory               *
           ************************************************************
-------------------------------------------------------------------------------
                                 ORCA SCF
-------------------------------------------------------------------------------

------------
SCF SETTINGS
------------
Hamiltonian:
 Density Functional     Method          .... DFT(GTOs)
 Exchange Functional    Exchange        .... B88
   X-Alpha parameter    XAlpha          ....  0.666667
   Becke's b parameter  XBeta           ....  0.004200
 Correlation Functional Correlation     .... LYP
 LDA part of GGA corr.  LDAOpt          .... VWN-5
 Gradients option       PostSCFGGA      .... off
 Hybrid DFT is turned on
   Fraction HF Exchange ScalHFX         ....  0.200000
   Scaling of DF-GGA-X  ScalDFX         ....  0.720000
   Scaling of DF-GGA-C  ScalDFC         ....  0.810000
   Scaling of DF-LDA-C  ScalLDAC        ....  1.000000
   Perturbative correction              ....  0.000000
   Density functional embedding theory  .... OFF
   NL short-range parameter             ....  4.800000
 RI-approximation to the Coulomb term is turned on
   Number of AuxJ basis functions       .... 217
   RIJ-COSX (HFX calculated with COS-X)).... on

Relativistic Settings:
 Scalar relativistic method             .... ZORA
 Speed of light used       Velit        ....       137.035989
Orbital energies will be scaled


General Settings:
 Integral files         IntName         .... ORCA
 Hartree-Fock type      HFTyp           .... UHF
 Total Charge           Charge          ....    1
 Multiplicity           Mult            ....    2
 Number of Electrons    NEL             ....   31
 Basis Dimension        Dim             ....   31
 Nuclear Repulsion      ENuc            ....    101.7567979183 Eh

Convergence Acceleration:
 DIIS                   CNVDIIS         .... on
   Start iteration      DIISMaxIt       ....    12
   Startup error        DIISStart       ....  0.200000
   # of expansion vecs  DIISMaxEq       ....     5
   Bias factor          DIISBfac        ....   1.050
   Max. coefficient     DIISMaxC        ....  10.000
 Trust-Rad. Augm. Hess. CNVTRAH         .... auto
   Auto Start mean grad. ratio tolernc. ....  1.125000
   Auto Start start iteration           ....    20
   Auto Start num. interpolation iter.  ....    10
   Max. Number of Micro iterations      ....    16
   Max. Number of Macro iterations      .... Maxiter - #DIIS iter
   Number of Davidson start vectors     ....     2
   Converg. threshold I  (grad. norm)   ....   1.000e-05
   Converg. threshold II (energy diff.) ....   1.000e-08
   Grad. Scal. Fac. for Micro threshold ....   0.100
   Minimum threshold for Micro iter.    ....   0.010
   NR start threshold (gradient norm)   ....   0.001
   Initial trust radius                 ....   0.400
   Minimum AH scaling param. (alpha)    ....   1.000
   Maximum AH scaling param. (alpha)    .... 1000.000
   Orbital update algorithm             .... Taylor
   White noise on init. David. guess    .... on
   Maximum white noise                  ....   0.010
   Quad. conv. algorithm                .... NR
 SOSCF                  CNVSOSCF        .... off
 Level Shifting         CNVShift        .... on
   Level shift para.    LevelShift      ....    0.2500
   Turn off err/grad.   ShiftErr        ....    0.0010
 Zerner damping         CNVZerner       .... off
 Static damping         CNVDamp         .... on
   Fraction old density DampFac         ....    0.7000
   Max. Damping (<1)    DampMax         ....    0.9800
   Min. Damping (>=0)   DampMin         ....    0.0000
   Turn off err/grad.   DampErr         ....    0.1000
 Fernandez-Rico         CNVRico         .... off

SCF Procedure:
 Maximum # iterations   MaxIter         ....   700
 SCF integral mode      SCFMode         .... Direct
   Integral package                     .... SHARK and LIBINT hybrid scheme
 Reset frequency        DirectResetFreq ....    20
 Integral Threshold     Thresh          ....  2.500e-11 Eh
 Primitive CutOff       TCut            ....  2.500e-12 Eh

Convergence Tolerance:
 Convergence Check Mode ConvCheckMode   .... Total+1el-Energy
 Convergence forced     ConvForced      .... 0
 Energy Change          TolE            ....  1.000e-08 Eh
 1-El. energy change                    ....  1.000e-05 Eh
 DIIS Error             TolErr          ....  5.000e-07


Diagonalization of the overlap matrix:
Smallest eigenvalue                        ... 4.470e-02
Time for diagonalization                   ...    0.001 sec
Threshold for overlap eigenvalues          ... 1.000e-08
Number of eigenvalues below threshold      ... 0
Time for construction of square roots      ...    0.002 sec
Total time needed                          ...    0.003 sec

Time for model grid setup =    0.046 sec

------------------------------
INITIAL GUESS: MODEL POTENTIAL
------------------------------
Loading ZORA relativistic densities                ... done
Calculating cut-offs                               ... done
Initializing the effective Hamiltonian             ... done
Setting up the integral package (SHARK)            ... done
Starting the Coulomb interaction                   ... done (   0.0 sec)
Reading the grid                                   ... done
Mapping shells                                     ... done
Starting the XC term evaluation                    ... done (   0.0 sec)
  promolecular density results
     # of electrons  =     32.000724518
     EX              =    -41.522421870
     EC              =     -1.247424401
     EX+EC           =    -42.769846271
Transforming the Hamiltonian                       ... done (   0.0 sec)
Diagonalizing the Hamiltonian                      ... done (   0.0 sec)
Back transforming the eigenvectors                 ... done (   0.0 sec)
Now organizing SCF variables                       ... done
                      ------------------
                      INITIAL GUESS DONE (   0.1 sec)
                      ------------------
-------------------
DFT GRID GENERATION
-------------------

General Integration Accuracy     IntAcc      ... 4.388
Radial Grid Type                 RadialGrid  ... OptM3 with GC (2021)
Angular Grid (max. ang.)         AngularGrid ... 4 (Lebedev-302)
Angular grid pruning method      GridPruning ... 4 (adaptive)
Weight generation scheme         WeightScheme... Becke
Basis function cutoff            BFCut       ... 1.0000e-11
Integration weight cutoff        WCut        ... 1.0000e-14
Angular grids for H and He will be reduced by one unit
Partially contracted basis set               ... off
Rotationally invariant grid construction     ... off

Total number of grid points                  ...    19619
Total number of batches                      ...      309
Average number of points per batch           ...       63
Average number of grid points per atom       ...     6540
Time for grid setup =    0.245 sec

--------------------
COSX GRID GENERATION
--------------------

GRIDX 1
-------
General Integration Accuracy     IntAcc      ... 3.816
Radial Grid Type                 RadialGrid  ... OptM3 with GC (2021)
Angular Grid (max. ang.)         AngularGrid ... 1 (Lebedev-50)
Angular grid pruning method      GridPruning ... 4 (adaptive)
Weight generation scheme         WeightScheme... Becke
Basis function cutoff            BFCut       ... 1.0000e-11
Integration weight cutoff        WCut        ... 1.0000e-14
Angular grids for H and He will be reduced by one unit
Partially contracted basis set               ... on
Rotationally invariant grid construction     ... off

Total number of grid points                  ...     2382
Total number of batches                      ...       39
Average number of points per batch           ...       61
Average number of grid points per atom       ...      794
UseSFitting                                  ... on

GRIDX 2
-------
General Integration Accuracy     IntAcc      ... 4.020
Radial Grid Type                 RadialGrid  ... OptM3 with GC (2021)
Angular Grid (max. ang.)         AngularGrid ... 2 (Lebedev-110)
Angular grid pruning method      GridPruning ... 4 (adaptive)
Weight generation scheme         WeightScheme... Becke
Basis function cutoff            BFCut       ... 1.0000e-11
Integration weight cutoff        WCut        ... 1.0000e-14
Angular grids for H and He will be reduced by one unit
Partially contracted basis set               ... on
Rotationally invariant grid construction     ... off

Total number of grid points                  ...     5736
Total number of batches                      ...       91
Average number of points per batch           ...       63
Average number of grid points per atom       ...     1912
UseSFitting                                  ... on

GRIDX 3
-------
General Integration Accuracy     IntAcc      ... 4.338
Radial Grid Type                 RadialGrid  ... OptM3 with GC (2021)
Angular Grid (max. ang.)         AngularGrid ... 3 (Lebedev-194)
Angular grid pruning method      GridPruning ... 4 (adaptive)
Weight generation scheme         WeightScheme... Becke
Basis function cutoff            BFCut       ... 1.0000e-11
Integration weight cutoff        WCut        ... 1.0000e-14
Angular grids for H and He will be reduced by one unit
Partially contracted basis set               ... on
Rotationally invariant grid construction     ... off

Total number of grid points                  ...    13422
Total number of batches                      ...      211
Average number of points per batch           ...       63
Average number of grid points per atom       ...     4474
UseSFitting                                  ... on

Time for X-Grid setup             =    0.203 sec

--------------
SCF ITERATIONS
--------------
ITER       Energy         Delta-E        Max-DP      RMS-DP      [F,P]     Damp
               ***  Starting incremental Fock matrix formation  ***
  0   -549.4182709715   0.000000000000 0.12782924  0.00994486  0.1493550 0.7000
  1   -549.5831346057  -0.164863634192 0.08101105  0.00553721  0.0542660 0.7000
                               ***Turning on DIIS***
  2   -549.6200402079  -0.036905602210 0.07424506  0.00576202  0.0345797 0.0000
  3   -549.7024252175  -0.082385009613 0.05749499  0.00361468  0.0440012 0.0000
  4   -549.7194088795  -0.016983662053 0.01239606  0.00119193  0.0157737 0.0000
  5   -549.7210603182  -0.001651438666 0.00580212  0.00048407  0.0075205 0.0000
  6   -549.7214989951  -0.000438676906 0.00533211  0.00033940  0.0030055 0.0000
  7   -549.7216422789  -0.000143283750 0.00425839  0.00026373  0.0020016 0.0000
  8   -549.7217283505  -0.000086071654 0.00338764  0.00023058  0.0014092 0.0000
  9   -549.7217962943  -0.000067943781 0.00291759  0.00021452  0.0014987 0.0000
 10   -549.7218575990  -0.000061304695 0.00269211  0.00019309  0.0014809 0.0000
 11   -549.7219119027  -0.000054303673 0.00251842  0.00017829  0.0012587 0.0000
 12   -549.7219620006  -0.000050097908 0.00269517  0.00019824  0.0012967 0.0000
 13   -549.7220166189  -0.000054618343 0.00258897  0.00017038  0.0015011 0.0000
 14   -549.7220635573  -0.000046938415 0.00220479  0.00015975  0.0010813 0.0000
 15   -549.7221075753  -0.000044017939 0.00421844  0.00029953  0.0012304 0.0000
 16   -549.7221844918  -0.000076916544 0.00129697  0.00010122  0.0018472 0.0000
 17   -549.7222098722  -0.000025380340 0.00377930  0.00026255  0.0010900 0.0000
 18   -549.7222783805  -0.000068508352 0.00431327  0.00030168  0.0014590 0.0000
 19   -549.7223536561  -0.000075275573 0.00227962  0.00015779  0.0017272 0.0000
               *** Restarting incremental Fock matrix formation ***
                                   *** Resetting DIIS ***

 WARNING: the maximum gradient error descreased on average only by a factor   1.0
          during the last 20 iterations

                      *** Initiating the TRAH-SCF procedure ***


TRAH GRIDX
----------

General Integration Accuracy     IntAcc      ... 3.067
Radial Grid Type                 RadialGrid  ... OptM3 with GC (2021)
Angular Grid (max. ang.)         AngularGrid ... 1 (Lebedev-50)
Angular grid pruning method      GridPruning ... 4 (adaptive)
Weight generation scheme         WeightScheme... Becke
Basis function cutoff            BFCut       ... 1.0000e-11
Integration weight cutoff        WCut        ... 1.0000e-14
Angular grids for H and He will be reduced by one unit
Partially contracted basis set               ... on
Rotationally invariant grid construction     ... off

Total number of grid points                  ...     1376
Total number of batches                      ...       23
Average number of points per batch           ...       59
Average number of grid points per atom       ...      459


TRAH GRID
---------

General Integration Accuracy     IntAcc      ... 3.467
Radial Grid Type                 RadialGrid  ... OptM3 with GC (2021)
Angular Grid (max. ang.)         AngularGrid ... 1 (Lebedev-50)
Angular grid pruning method      GridPruning ... 4 (adaptive)
Weight generation scheme         WeightScheme... Becke
Basis function cutoff            BFCut       ... 1.0000e-11
Integration weight cutoff        WCut        ... 1.0000e-14
Angular grids for H and He will be reduced by one unit
Partially contracted basis set               ... off
Rotationally invariant grid construction     ... off

Total number of grid points                  ...     3014
Total number of batches                      ...       49
Average number of points per batch           ...       61
Average number of grid points per atom       ...     1005

 --------------------------------------------------------------------------------------------
   Iter.        energy            ||Error||_2        Shift      TRadius  Mac/Mic        Rej.
 --------------------------------------------------------------------------------------------
    0       -549.722408447528     2.662227e-03                     0.400 (TRAH MAcro)   No
    0     dE    -1.593152e-04     4.948614e-02    -1.5874e-04      0.060 (TRAH MIcro)
    0     dE    -5.491073e-04     4.677481e-02    -5.2777e-04      0.201 (TRAH MIcro)
    0     dE    -1.255888e-03     8.350830e-03    -1.2869e-03      0.400 (TRAH MIcro)
    0     dE    -1.283963e-03     8.580500e-03    -1.4594e-03      0.400 (TRAH MIcro)
    0     dE    -1.288108e-03     1.667063e-03    -1.4849e-03      0.400 (TRAH MIcro)
    0     dE    -1.291766e-03     1.505695e-03    -1.5046e-03      0.400 (TRAH MIcro)
    0     dE    -1.295093e-03     1.439154e-03    -1.5226e-03      0.400 (TRAH MIcro)
    0     dE    -1.295781e-03     2.044637e-04    -1.5265e-03      0.400 (TRAH MIcro)
 ---------------------------------
          TRAH Step control 
 ---------------------------------
  predicted energy change = -0.001296
  actual energy  change   = 0.000536
  energy change ratio     = -0.413718
  old trust radius        = 0.400000
  new trust radius        = 0.280000
  reject step?            =  1
    1       -549.722408447528     0.000000e+00                     0.280 (TRAH MAcro)  Yes
    2       -549.722408447528     2.662227e-03                     0.280 (TRAH MAcro)   No
    2     dE    -1.511112e-04     4.792341e-02    -1.5062e-04      0.057 (TRAH MIcro)
    2     dE    -5.380010e-04     4.598136e-02    -5.1785e-04      0.197 (TRAH MIcro)
    2     dE    -1.054537e-03     7.228670e-03    -4.0761e-03      0.280 (TRAH MIcro)
    2     dE    -1.067647e-03     7.831555e-03    -4.2383e-03      0.280 (TRAH MIcro)
    2     dE    -1.072636e-03     1.602372e-03    -4.3008e-03      0.280 (TRAH MIcro)
    2     dE    -1.074702e-03     1.071922e-03    -4.3224e-03      0.280 (TRAH MIcro)
    2     dE    -1.076337e-03     9.193201e-04    -4.3399e-03      0.280 (TRAH MIcro)
    2     dE    -1.076621e-03     1.163510e-04    -4.3430e-03      0.280 (TRAH MIcro)
    3       -549.722957980311     1.387770e-02                     0.280 (TRAH MAcro)   No
    3     dE    -7.657862e-05     1.103705e-02    -7.6576e-05      0.006 (TRAH MIcro)
    3     dE    -1.374629e-04     1.475496e-02    -1.3741e-04      0.020 (TRAH MIcro)
    3     dE    -1.525161e-04     3.371124e-03    -1.5242e-04      0.025 (TRAH MIcro)
    3     dE    -1.588742e-04     2.517992e-03    -1.5873e-04      0.030 (TRAH MIcro)
    3     dE    -1.653789e-04     9.886110e-04    -1.6514e-04      0.038 (TRAH MIcro)
    4       -549.723129737268     1.069863e-03                     0.336 (TRAH MAcro)   No
    4     dE    -1.593063e-07     2.763682e-03    -1.5931e-07      0.001 (TRAH MIcro)
    4     dE    -1.885937e-06     4.778040e-03    -1.8859e-06      0.004 (TRAH MIcro)
    4     dE    -3.463952e-06     1.426572e-03    -3.4638e-06      0.007 (TRAH MIcro)
    4     dE    -5.223036e-06     6.234828e-04    -5.2222e-06      0.013 (TRAH MIcro)
    4     dE    -5.470797e-06     4.371202e-04    -5.4697e-06      0.014 (TRAH MIcro)
    4     dE    -5.652642e-06     1.939020e-04    -5.6514e-06      0.015 (TRAH MIcro)
    4     dE    -5.710019e-06     1.460655e-04    -5.7088e-06      0.015 (TRAH MIcro)
    4     dE    -5.722367e-06     1.180747e-04    -5.7211e-06      0.015 (TRAH MIcro)
    4     dE    -5.728355e-06     5.220851e-05    -5.7271e-06      0.015 (TRAH MIcro)
    5       -549.723135544626     7.968686e-05                           (NR   MAcro)
    5     dE    -1.654415e-09     4.516180e-05                           (NR   MIcro)
    5     dE    -3.174778e-09     2.403166e-05                           (NR   MIcro)
    5     dE    -3.820493e-09     2.983354e-05                           (NR   MIcro)
    5     dE    -4.882256e-09     2.395664e-05                           (NR   MIcro)
    5     dE    -5.546105e-09     1.359620e-05                           (NR   MIcro)
    5     dE    -5.641231e-09     2.509772e-06                           (NR   MIcro)
    5     dE    -5.648172e-09     1.050387e-06                           (NR   MIcro)
    5     dE    -5.649127e-09     2.721200e-07                           (NR   MIcro)
    6       -549.723135549590     3.043211e-07                           (NR   MAcro)

               *****************************************************
               *                     SUCCESS                       *
               *           SCF CONVERGED AFTER  64 CYCLES          *
               *****************************************************

Old exchange energy                            =     -8.181047750 Eh
New exchange energy                            =     -8.181028182 Eh
Exchange energy change after final integration =      0.000019569 Eh
Total energy after final integration           =   -549.723115981 Eh
Final COS-X integration done in                =     0.245 sec

----------------
TOTAL SCF ENERGY
----------------

Total Energy       :         -549.72311598 Eh          -14958.72647 eV

Components:
Nuclear Repulsion  :          101.75679792 Eh            2768.94324 eV
Electronic Energy  :         -651.47991390 Eh          -17727.66971 eV
One Electron Energy:         -947.91718982 Eh          -25794.13808 eV
Two Electron Energy:          296.43727592 Eh            8066.46837 eV
Max COSX asymmetry :            0.00000142 Eh               0.00004 eV

Virial components:
Potential Energy   :        -1094.84329929 Eh          -29792.20078 eV
Kinetic Energy     :          545.12018331 Eh           14833.47431 eV
Virial Ratio       :            2.00844389


DFT components:
N(Alpha)           :       15.999999536454 electrons
N(Beta)            :       15.000001912589 electrons
N(Total)           :       31.000001449043 electrons
E(X)               :      -32.672033289671 Eh       
E(C)               :       -1.419757909888 Eh       
E(XC)              :      -34.091791199559 Eh       
DFET-embed. en.    :        0.000000000000 Eh       

---------------
SCF CONVERGENCE
---------------

  Last Energy change         ...   -4.9638e-09  Tolerance :   1.0000e-08
  Last Orbital Gradient      ...    3.0432e-07  Tolerance :   1.0000e-05
  Last Orbital Rotation      ...    3.9181e-04

             **** THE GBW FILE WAS UPDATED (ORCA.gbw) ****
             **** DENSITY ORCA.scfp WAS UPDATED ****
             **** ENERGY FILE WAS UPDATED (ORCA.en.tmp) ****
----------------------
UHF SPIN CONTAMINATION
----------------------

Warning: in a DFT calculation there is little theoretical justification to 
         calculate <S**2> as in Hartree-Fock theory. We will do it anyways
         but you should keep in mind that the values have only limited relevance

Expectation value of <S**2>     :     0.783028
Ideal value S*(S+1) for S=0.5   :     0.750000
Deviation                       :     0.033028

             **** THE GBW FILE WAS UPDATED (ORCA.gbw) ****
             **** DENSITY ORCA.scfp WAS UPDATED ****
----------------
ORBITAL ENERGIES
----------------
                 SPIN UP ORBITALS
  NO   OCC          E(Eh)            E(eV) 
   0   1.0000     -90.088192     -2451.4243 
   1   1.0000     -19.653015      -534.7857 
   2   1.0000     -19.615678      -533.7697 
   3   1.0000      -8.559172      -232.9069 
   4   1.0000      -6.475696      -176.2126 
   5   1.0000      -6.470400      -176.0685 
   6   1.0000      -6.469471      -176.0432 
   7   1.0000      -1.510222       -41.0952 
   8   1.0000      -1.417607       -38.5750 
   9   1.0000      -1.009981       -27.4830 
  10   1.0000      -0.840559       -22.8728 
  11   1.0000      -0.822166       -22.3723 
  12   1.0000      -0.816885       -22.2286 
  13   1.0000      -0.717840       -19.5334 
  14   1.0000      -0.695346       -18.9213 
  15   1.0000      -0.669603       -18.2208 
  16   0.0000      -0.489670       -13.3246 
  17   0.0000      -0.314935        -8.5698 
  18   0.0000      -0.257389        -7.0039 
  19   0.0000      -0.047170        -1.2836 
  20   0.0000       0.031718         0.8631 
  21   0.0000       0.044095         1.1999 
  22   0.0000       0.077674         2.1136 
  23   0.0000       0.534625        14.5479 
  24   0.0000       0.545125        14.8336 
  25   0.0000       0.606114        16.4932 
  26   0.0000       0.634044        17.2532 
  27   0.0000       0.639333        17.3971 
  28   0.0000       0.712596        19.3907 
  29   0.0000       1.044956        28.4347 
  30   0.0000       1.119653        30.4673 

                 SPIN DOWN ORBITALS
  NO   OCC          E(Eh)            E(eV) 
   0   1.0000     -90.087636     -2451.4092 
   1   1.0000     -19.630337      -534.1686 
   2   1.0000     -19.613148      -533.7009 
   3   1.0000      -8.558510      -232.8889 
   4   1.0000      -6.476324      -176.2297 
   5   1.0000      -6.469775      -176.0515 
   6   1.0000      -6.467483      -175.9892 
   7   1.0000      -1.489707       -40.5370 
   8   1.0000      -1.383699       -37.6524 
   9   1.0000      -0.983402       -26.7597 
  10   1.0000      -0.808447       -21.9990 
  11   1.0000      -0.804238       -21.8844 
  12   1.0000      -0.788712       -21.4619 
  13   1.0000      -0.678478       -18.4623 
  14   1.0000      -0.657891       -17.9021 
  15   0.0000      -0.552111       -15.0237 
  16   0.0000      -0.483139       -13.1469 
  17   0.0000      -0.302635        -8.2351 
  18   0.0000      -0.231756        -6.3064 
  19   0.0000      -0.042661        -1.1609 
  20   0.0000       0.033024         0.8986 
  21   0.0000       0.050598         1.3768 
  22   0.0000       0.080568         2.1924 
  23   0.0000       0.554548        15.0900 
  24   0.0000       0.563148        15.3240 
  25   0.0000       0.644110        17.5271 
  26   0.0000       0.644179        17.5290 
  27   0.0000       0.653205        17.7746 
  28   0.0000       0.724349        19.7105 
  29   0.0000       1.067262        29.0417 
  30   0.0000       1.130341        30.7581 
------------------
MOLECULAR ORBITALS
------------------
                      0         1         2         3         4         5   
                 -90.08819 -19.65301 -19.61568  -8.55917  -6.47570  -6.47040
                   1.00000   1.00000   1.00000   1.00000   1.00000   1.00000
                  --------  --------  --------  --------  --------  --------
  0S   1s        -0.997489 -0.000006 -0.000007 -0.278540 -0.000170 -0.000000
  0S   2s        -0.009352  0.000029  0.000099  1.028272  0.000660  0.000000
  0S   1pz       -0.000143 -0.000012 -0.000000  0.016506 -0.136481 -0.000000
  0S   1px        0.000000 -0.000000  0.000000 -0.000000  0.000000 -0.991975
  0S   1py       -0.000016 -0.000038  0.000056  0.001694  0.981690  0.000000
  0S   3s         0.002750  0.000199  0.000363  0.031136  0.000034 -0.000000
  0S   2pz        0.000252  0.000675  0.000630  0.002994 -0.003829 -0.000000
  0S   2px       -0.000000 -0.000000  0.000000  0.000000  0.000000 -0.026701
  0S   2py        0.000036 -0.000707  0.000792  0.000401  0.030174  0.000000
  0S   4s        -0.000859  0.004809  0.004975 -0.008385 -0.000170 -0.000000
  0S   3pz        0.000087  0.002444  0.002326 -0.000302  0.000893  0.000000
  0S   3px        0.000000  0.000000 -0.000000 -0.000000 -0.000000  0.007208
  0S   3py       -0.000000 -0.002591  0.002796 -0.000038 -0.007130 -0.000000
  1O   1s         0.000017  0.000106  0.995246 -0.000073 -0.000333  0.000000
  1O   2s         0.000064  0.000240  0.027421  0.000138 -0.000278  0.000000
  1O   1pz        0.000031  0.000139 -0.001071  0.000018 -0.000121 -0.000000
  1O   1px        0.000000  0.000000 -0.000000 -0.000000  0.000000  0.000187
  1O   1py        0.000044 -0.000047 -0.002117  0.000017 -0.000298  0.000000
  1O   3s        -0.000299 -0.000968 -0.013846 -0.001162 -0.000532  0.000000
  1O   2pz        0.000152 -0.000606  0.001721  0.001021  0.001447  0.000000
  1O   2px       -0.000000 -0.000000  0.000000  0.000000 -0.000000 -0.000112
  1O   2py        0.000340  0.000786  0.003375  0.002110  0.001974 -0.000000
  2O   1s         0.000016  0.995148 -0.000070 -0.000026  0.000247 -0.000000
  2O   2s         0.000082  0.027757  0.000230  0.000146  0.000277 -0.000000
  2O   1pz        0.000021 -0.001033  0.000133  0.000040  0.000049  0.000000
  2O   1px        0.000000  0.000000  0.000000 -0.000000 -0.000000  0.000164
  2O   1py       -0.000023  0.001949  0.000052 -0.000034 -0.000093  0.000000
  2O   3s        -0.000271 -0.013540 -0.000928 -0.000904  0.000648  0.000000
  2O   2pz        0.000161  0.001801 -0.000521  0.000998 -0.001637 -0.000000
  2O   2px       -0.000000 -0.000000 -0.000000  0.000000  0.000000 -0.000138
  2O   2py       -0.000315 -0.003147 -0.000792 -0.001841  0.002134  0.000000
                      6         7         8         9        10        11   
                  -6.46947  -1.51022  -1.41761  -1.00998  -0.84056  -0.82217
                   1.00000   1.00000   1.00000   1.00000   1.00000   1.00000
                  --------  --------  --------  --------  --------  --------
  0S   1s        -0.004927 -0.045722 -0.006635  0.064716  0.007328 -0.008254
  0S   2s         0.018460  0.204165  0.029542 -0.281161 -0.030832  0.039573
  0S   1pz       -0.982120  0.065470  0.005155  0.028667  0.006733 -0.188231
  0S   1px        0.000000 -0.000000 -0.000000  0.000000  0.000000  0.000000
  0S   1py       -0.136391  0.001218  0.116963  0.024242 -0.165163  0.019142
  0S   3s        -0.002704 -0.436521 -0.065477  0.720304  0.088369 -0.074056
  0S   2pz       -0.027789 -0.145184 -0.013408 -0.052621 -0.014354  0.520435
  0S   2px        0.000000  0.000000  0.000000 -0.000000 -0.000000 -0.000000
  0S   2py       -0.004228 -0.004275 -0.251657 -0.059972  0.461410 -0.051810
  0S   4s        -0.001495  0.051423 -0.000819  0.183891  0.036721 -0.047683
  0S   3pz        0.006416  0.046920  0.000715 -0.009214  0.003101  0.098624
  0S   3px       -0.000000 -0.000000  0.000000 -0.000000 -0.000000 -0.000000
  0S   3py        0.001018 -0.000798  0.075034  0.002809  0.010306  0.011262
  1O   1s         0.000231  0.115546  0.153094  0.108046  0.081374  0.025187
  1O   2s        -0.000172 -0.256681 -0.343698 -0.255648 -0.194624 -0.052023
  1O   1pz        0.000230  0.058455  0.075081 -0.070477 -0.260235  0.171611
  1O   1px       -0.000000 -0.000000  0.000000 -0.000000 -0.000000 -0.000000
  1O   1py        0.000199  0.114753  0.120690 -0.088185 -0.228864 -0.205768
  1O   3s         0.001566 -0.247118 -0.345956 -0.333868 -0.286791 -0.122696
  1O   2pz       -0.001103  0.021106  0.036029 -0.017511 -0.113500  0.122021
  1O   2px        0.000000  0.000000 -0.000000 -0.000000 -0.000000 -0.000000
  1O   2py       -0.002154  0.052131  0.059296 -0.008858 -0.078963 -0.092096
  2O   1s         0.000092  0.137437 -0.149136  0.106314 -0.054793  0.041414
  2O   2s        -0.000235 -0.311375  0.340949 -0.259425  0.138242 -0.097313
  2O   1pz        0.000141  0.066438 -0.064995 -0.138717  0.394402  0.199882
  2O   1px       -0.000000  0.000000  0.000000  0.000000 -0.000000 -0.000000
  2O   1py       -0.000032 -0.115181  0.090750  0.120580 -0.151177  0.372999
  2O   3s         0.001359 -0.301460  0.347021 -0.322760  0.173192 -0.158633
  2O   2pz       -0.000869  0.030359 -0.038231 -0.048466  0.198497  0.139427
  2O   2px        0.000000  0.000000  0.000000  0.000000 -0.000000 -0.000000
  2O   2py        0.001554 -0.061252  0.055778  0.025374 -0.055222  0.183486
                     12        13        14        15        16        17   
                  -0.81689  -0.71784  -0.69535  -0.66960  -0.48967  -0.31493
                   1.00000   1.00000   1.00000   1.00000   0.00000   0.00000
                  --------  --------  --------  --------  --------  --------
  0S   1s        -0.000000 -0.014020 -0.000000 -0.019164  0.000000  0.029251
  0S   2s         0.000000  0.065794  0.000000  0.089738 -0.000000 -0.128026
  0S   1pz       -0.000000 -0.107022 -0.000000 -0.081961 -0.000000 -0.201159
  0S   1px       -0.206947  0.000000 -0.059181 -0.000000  0.225900 -0.000000
  0S   1py       -0.000000 -0.044534  0.000000 -0.012305 -0.000000  0.057687
  0S   3s         0.000000 -0.144785 -0.000000 -0.203274  0.000000  0.373618
  0S   2pz        0.000000  0.297680  0.000000  0.224936  0.000000  0.659801
  0S   2px        0.564442 -0.000000  0.168199  0.000000 -0.673340  0.000000
  0S   2py        0.000000  0.120499 -0.000000  0.040680  0.000000 -0.183999
  0S   4s        -0.000000 -0.198153 -0.000000 -0.306982 -0.000000  0.652559
  0S   3pz        0.000000  0.024436  0.000000 -0.023815  0.000000  0.574193
  0S   3px        0.126371 -0.000000  0.042457  0.000000 -0.251231  0.000000
  0S   3py       -0.000000 -0.076963  0.000000  0.082175  0.000000 -0.133420
  1O   1s         0.000000  0.026756  0.000000 -0.002539  0.000000  0.036602
  1O   2s        -0.000000 -0.080505  0.000000  0.006786 -0.000000 -0.078289
  1O   1pz        0.000000 -0.001685 -0.000000 -0.561549 -0.000000 -0.077758
  1O   1px        0.270424 -0.000000  0.441489 -0.000000  0.460612 -0.000000
  1O   1py       -0.000000 -0.392836 -0.000000  0.155749  0.000000  0.366454
  1O   3s        -0.000000 -0.011695 -0.000000  0.031657  0.000000 -0.371436
  1O   2pz        0.000000 -0.007564 -0.000000 -0.360841 -0.000000 -0.045406
  1O   2px        0.156035 -0.000000  0.301982 -0.000000  0.350557 -0.000000
  1O   2py       -0.000000 -0.237063 -0.000000  0.103708  0.000000  0.366255
  2O   1s         0.000000 -0.010244  0.000000  0.000152  0.000000  0.057292
  2O   2s        -0.000000  0.032931 -0.000000 -0.021764 -0.000000 -0.128431
  2O   1pz        0.000000 -0.455332 -0.000000 -0.189834  0.000000  0.108426
  2O   1px        0.377496  0.000000 -0.514332  0.000000  0.313125 -0.000000
  2O   1py        0.000000 -0.277786  0.000000  0.267886  0.000000 -0.425810
  2O   3s        -0.000000  0.018017 -0.000000  0.123914  0.000000 -0.559235
  2O   2pz        0.000000 -0.265928 -0.000000 -0.148090  0.000000  0.135461
  2O   2px        0.217330  0.000000 -0.339884  0.000000  0.220577 -0.000000
  2O   2py        0.000000 -0.172420 -0.000000  0.192661  0.000000 -0.438657
                     18        19        20        21        22        23   
                  -0.25739  -0.04717   0.03172   0.04409   0.07767   0.53462
                   0.00000   0.00000   0.00000   0.00000   0.00000   0.00000
                  --------  --------  --------  --------  --------  --------
  0S   1s        -0.006589  0.066129 -0.000000  0.002909 -0.005779  0.001747
  0S   2s         0.032547 -0.074836  0.000000 -0.014046  0.009090 -0.006709
  0S   1pz        0.030404  0.001865 -0.000000  0.248094  0.057247 -0.013396
  0S   1px        0.000000  0.000000  0.243750  0.000000 -0.000000 -0.000000
  0S   1py        0.219937  0.010535  0.000000 -0.050351  0.283183 -0.007285
  0S   3s        -0.073748  1.625097 -0.000000  0.036919 -0.134684  0.032978
  0S   2pz       -0.105531 -0.010793  0.000000 -1.059677 -0.245398  0.078856
  0S   2px       -0.000000 -0.000000 -1.047269 -0.000000  0.000000  0.000000
  0S   2py       -0.735143 -0.049897 -0.000000  0.212005 -1.195328  0.047655
  0S   4s        -0.284130 -2.242982  0.000000  0.082352  0.110086  0.273984
  0S   3pz       -0.166107 -0.343596 -0.000000  1.445223  0.275550  0.510036
  0S   3px       -0.000000  0.000000  1.379034  0.000000 -0.000000 -0.000000
  0S   3py       -0.958822  0.122206  0.000000 -0.337924  1.504009  0.100559
  1O   1s        -0.066612 -0.019625  0.000000  0.002152 -0.000417  0.028088
  1O   2s         0.126781  0.024251  0.000000  0.009305  0.043201 -0.192226
  1O   1pz       -0.278429  0.110518 -0.000000 -0.091319 -0.125150  0.359709
  1O   1px        0.000000  0.000000 -0.066893 -0.000000  0.000000  0.000000
  1O   1py       -0.256033  0.099316 -0.000000 -0.036206 -0.271391 -0.371178
  1O   3s         0.789065  0.455469 -0.000000 -0.153068 -0.431236 -0.103962
  1O   2pz       -0.310695  0.002228  0.000000 -0.135670 -0.035398 -0.411285
  1O   2px        0.000000 -0.000000 -0.127401  0.000000  0.000000 -0.000000
  1O   2py       -0.347476 -0.094210  0.000000  0.044220 -0.163061  0.565677
  2O   1s         0.037563 -0.024878 -0.000000  0.007377 -0.002573  0.015346
  2O   2s        -0.074613  0.037981  0.000000  0.010484 -0.021921 -0.103152
  2O   1pz        0.258941  0.101280  0.000000 -0.130159  0.058669  0.580740
  2O   1px        0.000000 -0.000000 -0.079194  0.000000  0.000000 -0.000000
  2O   1py       -0.064748 -0.099069 -0.000000  0.115398 -0.185672  0.446409
  2O   3s        -0.432703  0.532898  0.000000 -0.374972  0.326800 -0.073542
  2O   2pz        0.249982 -0.050342 -0.000000 -0.085941 -0.042170 -0.746198
  2O   2px        0.000000 -0.000000 -0.118488 -0.000000  0.000000  0.000000
  2O   2py       -0.127262  0.117255 -0.000000 -0.027377 -0.100274 -0.634742
                     24        25        26        27        28        29   
                   0.54512   0.60611   0.63404   0.63933   0.71260   1.04496
                   0.00000   0.00000   0.00000   0.00000   0.00000   0.00000
                  --------  --------  --------  --------  --------  --------
  0S   1s         0.000000  0.009230 -0.016622  0.000000 -0.000336  0.003049
  0S   2s         0.000000  0.008996 -0.028719  0.000000  0.005817 -0.022316
  0S   1pz       -0.000000 -0.020442  0.028170 -0.000000  0.001629 -0.017453
  0S   1px        0.000387 -0.000000 -0.000000 -0.000291 -0.000000 -0.000000
  0S   1py        0.000000  0.040153  0.018235 -0.000000 -0.034862  0.058001
  0S   3s         0.000000  0.324270 -0.628240  0.000000  0.009111  0.034534
  0S   2pz        0.000000  0.178309 -0.280258  0.000000 -0.002972  0.123354
  0S   2px       -0.008181  0.000000  0.000000  0.005303 -0.000000 -0.000000
  0S   2py       -0.000000 -0.313430 -0.186539  0.000000  0.367540 -0.549232
  0S   4s         0.000000  0.052299 -0.092255  0.000000  0.020935  0.461677
  0S   3pz        0.000000 -0.006034  0.167172 -0.000000  0.062158  0.267735
  0S   3px        0.093894  0.000000  0.000000  0.553724 -0.000000  0.000000
  0S   3py        0.000000 -0.098265 -0.058602  0.000000 -0.457711 -0.883998
  1O   1s         0.000000 -0.016014 -0.041643  0.000000  0.010797  0.031161
  1O   2s        -0.000000  0.177775  0.275046 -0.000000 -0.066834 -0.767172
  1O   1pz        0.000000  0.369282  0.668081 -0.000001  0.278690  0.209654
  1O   1px       -0.552422  0.000000  0.000001  0.758685 -0.000000  0.000000
  1O   1py       -0.000000 -0.133294  0.444887 -0.000000 -0.639573  0.071979
  1O   3s         0.000000 -0.120978 -0.027970  0.000000  0.104208  1.167632
  1O   2pz       -0.000000 -0.485680 -1.001392  0.000001 -0.329779 -0.559211
  1O   2px        0.610521 -0.000000 -0.000001 -1.026623  0.000000 -0.000000
  1O   2py        0.000000  0.154345 -0.801919  0.000001  0.951065 -0.228284
  2O   1s         0.000000  0.050590 -0.004313 -0.000000 -0.006458 -0.053407
  2O   2s        -0.000000 -0.439933 -0.034886  0.000000  0.040237  1.455035
  2O   1pz        0.000000 -0.613090  0.161487 -0.000000 -0.133461 -0.225121
  2O   1px        0.751921  0.000000  0.000000  0.535228 -0.000000 -0.000000
  2O   1py        0.000000  0.384743 -0.259733  0.000000 -0.586273  0.193616
  2O   3s         0.000000  0.205032  0.077221 -0.000000 -0.127736 -2.313667
  2O   2pz       -0.000000  0.925076 -0.270482  0.000000  0.159141  0.651366
  2O   2px       -0.909177 -0.000000 -0.000001 -0.773229  0.000000 -0.000000
  2O   2py       -0.000000 -0.663505  0.420795 -0.000000  0.860453 -0.660324
                     30   
                   1.11965
                   0.00000
                  --------
  0S   1s        -0.010497
  0S   2s         0.036812
  0S   1pz        0.042393
  0S   1px        0.000000
  0S   1py        0.014832
  0S   3s        -0.265057
  0S   2pz       -0.370071
  0S   2px       -0.000000
  0S   2py       -0.191037
  0S   4s        -1.618499
  0S   3pz       -0.795493
  0S   3px       -0.000000
  0S   3py       -0.290865
  1O   1s         0.049757
  1O   2s        -1.545406
  1O   1pz        0.061077
  1O   1px        0.000000
  1O   1py        0.216792
  1O   3s         2.620827
  1O   2pz       -0.298772
  1O   2px       -0.000000
  1O   2py       -0.916099
  2O   1s         0.024137
  2O   2s        -0.846248
  2O   1pz       -0.025072
  2O   1px       -0.000000
  2O   1py       -0.146131
  2O   3s         1.485378
  2O   2pz       -0.021333
  2O   2px        0.000000
  2O   2py        0.620730

                      0         1         2         3         4         5   
                 -90.08764 -19.63034 -19.61315  -8.55851  -6.47632  -6.46977
                   1.00000   1.00000   1.00000   1.00000   1.00000   1.00000
                  --------  --------  --------  --------  --------  --------
  0S   1s        -0.997489  0.000004  0.000008 -0.278537 -0.000077 -0.000000
  0S   2s        -0.009351 -0.000023 -0.000098  1.028262  0.000263  0.000000
  0S   1pz       -0.000146  0.000016 -0.000003  0.017273  0.079150 -0.000000
  0S   1px       -0.000000  0.000000 -0.000000 -0.000000  0.000000  0.991998
  0S   1py       -0.000016  0.000032 -0.000060  0.001639 -0.987963  0.000000
  0S   3s         0.002750 -0.000224 -0.000349  0.031119 -0.000135 -0.000000
  0S   2pz        0.000253 -0.000667 -0.000614  0.003065  0.002200 -0.000000
  0S   2px        0.000000  0.000000  0.000000  0.000000  0.000000  0.026629
  0S   2py        0.000035  0.000695 -0.000768  0.000370 -0.030340 -0.000000
  0S   4s        -0.000859 -0.004613 -0.004953 -0.008411  0.000072 -0.000000
  0S   3pz        0.000087 -0.002342 -0.002320 -0.000315 -0.000523  0.000000
  0S   3px       -0.000000 -0.000000  0.000000 -0.000000 -0.000000 -0.007212
  0S   3py       -0.000000  0.002456 -0.002780 -0.000042  0.007217 -0.000000
  1O   1s         0.000017 -0.000112 -0.995273 -0.000070  0.000344 -0.000000
  1O   2s         0.000064 -0.000239 -0.027260  0.000115  0.000297 -0.000000
  1O   1pz        0.000031 -0.000131  0.001054  0.000035  0.000116  0.000000
  1O   1px        0.000000  0.000000 -0.000000  0.000000  0.000000 -0.000184
  1O   1py        0.000044  0.000046  0.002122  0.000030  0.000296  0.000000
  1O   3s        -0.000299  0.000957  0.013754 -0.001128  0.000564  0.000000
  1O   2pz        0.000152  0.000573 -0.001694  0.000999 -0.001481 -0.000000
  1O   2px        0.000000  0.000000 -0.000000  0.000000  0.000000  0.000127
  1O   2py        0.000340 -0.000762 -0.003348  0.002101 -0.002070 -0.000000
  2O   1s         0.000016 -0.995377  0.000076 -0.000028 -0.000237  0.000000
  2O   2s         0.000082 -0.026516 -0.000231  0.000127 -0.000335  0.000000
  2O   1pz        0.000022  0.001012 -0.000134  0.000070 -0.000013  0.000000
  2O   1px        0.000000  0.000000  0.000000 -0.000000  0.000000 -0.000175
  2O   1py       -0.000023 -0.001919 -0.000053 -0.000038  0.000079  0.000000
  2O   3s        -0.000271  0.012959  0.000932 -0.000876 -0.000502  0.000000
  2O   2pz        0.000161 -0.001730  0.000514  0.000986  0.001550 -0.000000
  2O   2px        0.000000  0.000000 -0.000000  0.000000  0.000000  0.000162
  2O   2py       -0.000315  0.003050  0.000791 -0.001832 -0.002014  0.000000
                      6         7         8         9        10        11   
                  -6.46748  -1.48971  -1.38370  -0.98340  -0.80845  -0.80424
                   1.00000   1.00000   1.00000   1.00000   1.00000   1.00000
                  --------  --------  --------  --------  --------  --------
  0S   1s        -0.005152 -0.047762 -0.005951 -0.064738 -0.000000 -0.009671
  0S   2s         0.019302  0.213180  0.026130  0.280847  0.000000  0.044678
  0S   1pz       -0.988401  0.067810  0.010668 -0.028440 -0.000000 -0.144213
  0S   1px       -0.000000 -0.000000  0.000000  0.000000  0.213152 -0.000000
  0S   1py       -0.079082  0.021086 -0.120680 -0.009104  0.000000  0.127483
  0S   3s        -0.002778 -0.458737 -0.060610 -0.724822 -0.000000 -0.095761
  0S   2pz       -0.027904 -0.153366 -0.025445  0.048854  0.000001  0.396429
  0S   2px       -0.000000  0.000000 -0.000000 -0.000000 -0.581923  0.000001
  0S   2py       -0.002477 -0.044158  0.263702  0.020827 -0.000001 -0.359505
  0S   4s        -0.001480  0.044166  0.000331 -0.193682 -0.000000 -0.057730
  0S   3pz        0.006481  0.044413  0.006601  0.009391  0.000000  0.073875
  0S   3px        0.000000  0.000000 -0.000000  0.000000 -0.131965  0.000000
  0S   3py        0.000584  0.014048 -0.073433  0.002649  0.000000 -0.005648
  1O   1s         0.000211  0.141724 -0.131248 -0.110400 -0.000000 -0.031653
  1O   2s        -0.000196 -0.314193  0.293432  0.262118  0.000000  0.082946
  1O   1pz        0.000234  0.064720 -0.056937  0.071587  0.000000  0.292264
  1O   1px       -0.000000 -0.000000 -0.000000  0.000000 -0.342450  0.000000
  1O   1py        0.000184  0.135674 -0.093287  0.100003  0.000000 -0.021452
  1O   3s         0.001549 -0.306019  0.306798  0.346244  0.000000  0.092025
  1O   2pz       -0.001044  0.027624 -0.031882  0.018171  0.000000  0.170498
  1O   2px       -0.000000  0.000000  0.000000  0.000000 -0.199968  0.000000
  1O   2py       -0.002037  0.062513 -0.050642  0.013619  0.000000 -0.025214
  2O   1s         0.000106  0.100237  0.165037 -0.113038  0.000000  0.074260
  2O   2s        -0.000208 -0.220575 -0.366632  0.267728 -0.000000 -0.175370
  2O   1pz        0.000171  0.048345  0.071744  0.077631 -0.000000 -0.096379
  2O   1px        0.000000  0.000000 -0.000000 -0.000000 -0.281557  0.000001
  2O   1py       -0.000029 -0.097860 -0.120651 -0.107362  0.000001  0.368657
  2O   3s         0.001365 -0.219770 -0.387984  0.348991 -0.000000 -0.264977
  2O   2pz       -0.000970  0.021978  0.043331  0.022307 -0.000000 -0.020521
  2O   2px       -0.000000  0.000000 -0.000000 -0.000000 -0.167876  0.000000
  2O   2py        0.001659 -0.048873 -0.068063 -0.021809  0.000000  0.173613
                     12        13        14        15        16        17   
                  -0.78871  -0.67848  -0.65789  -0.55211  -0.48314  -0.30264
                   1.00000   1.00000   1.00000   0.00000   0.00000   0.00000
                  --------  --------  --------  --------  --------  --------
  0S   1s         0.008154 -0.000000 -0.008574 -0.016346  0.000000 -0.028941
  0S   2s        -0.040163  0.000000  0.041228  0.081116  0.000000  0.127483
  0S   1pz        0.148009 -0.000000 -0.049877 -0.094647 -0.000000  0.198286
  0S   1px       -0.000000  0.010376 -0.000000 -0.000000  0.227423  0.000000
  0S   1py        0.134765  0.000000 -0.025436  0.014260  0.000000 -0.044061
  0S   3s         0.070496 -0.000000 -0.086043 -0.158707  0.000000 -0.368895
  0S   2pz       -0.410892  0.000000  0.138857  0.263757  0.000000 -0.651594
  0S   2px        0.000000 -0.029485  0.000000  0.000000 -0.678353 -0.000000
  0S   2py       -0.382865 -0.000000  0.085302 -0.048681 -0.000000  0.139809
  0S   4s         0.074043 -0.000000 -0.142542 -0.381514 -0.000000 -0.689082
  0S   3pz       -0.077339  0.000000 -0.000122 -0.035440 -0.000000 -0.599462
  0S   3px        0.000000 -0.016403  0.000000  0.000000 -0.251864 -0.000000
  0S   3py       -0.008902  0.000000  0.147012 -0.078706 -0.000000  0.103364
  1O   1s        -0.078842  0.000000  0.003211 -0.003777 -0.000000 -0.039512
  1O   2s         0.186435  0.000000  0.003611 -0.011046 -0.000000  0.083406
  1O   1pz        0.051032 -0.000000 -0.466205 -0.293358 -0.000000  0.054714
  1O   1px        0.000000  0.462323 -0.000000 -0.000000  0.398468  0.000000
  1O   1py        0.417582  0.000000  0.286347 -0.145573  0.000000 -0.371515
  1O   3s         0.292042 -0.000000 -0.069571  0.150107  0.000000  0.411218
  1O   2pz       -0.008295 -0.000000 -0.287999 -0.233758 -0.000000  0.017993
  1O   2px        0.000000  0.319044 -0.000000 -0.000000  0.297293  0.000000
  1O   2py        0.190126  0.000000  0.201198 -0.121614 -0.000000 -0.381206
  2O   1s         0.025610  0.000000  0.001568  0.003499  0.000000 -0.057329
  2O   2s        -0.069570 -0.000000 -0.024929 -0.017103 -0.000000  0.121194
  2O   1pz       -0.206147 -0.000000  0.132162 -0.528786 -0.000000 -0.095854
  2O   1px        0.000000 -0.500855  0.000000  0.000000  0.388297  0.000000
  2O   1py       -0.006294  0.000000  0.381001 -0.107776  0.000000  0.427570
  2O   3s        -0.068633 -0.000000  0.111060  0.040254 -0.000000  0.565435
  2O   2pz       -0.132825 -0.000000  0.064746 -0.393982 -0.000000 -0.129957
  2O   2px        0.000000 -0.346503  0.000000  0.000000  0.287742  0.000000
  2O   2py       -0.012153  0.000000  0.273135 -0.071903 -0.000000  0.449510
                     18        19        20        21        22        23   
                  -0.23176  -0.04266   0.03302   0.05060   0.08057   0.55455
                   0.00000   0.00000   0.00000   0.00000   0.00000   0.00000
                  --------  --------  --------  --------  --------  --------
  0S   1s         0.005194 -0.066550  0.000000  0.002114  0.005985  0.000000
  0S   2s        -0.024539  0.075935 -0.000000 -0.013813 -0.009163 -0.000000
  0S   1pz       -0.024358 -0.006161  0.000000  0.250233 -0.053109 -0.000000
  0S   1px        0.000000 -0.000000 -0.243855  0.000000 -0.000000  0.000261
  0S   1py       -0.205565 -0.012971  0.000000 -0.048814 -0.286214  0.000000
  0S   3s         0.062347 -1.633496  0.000000  0.013809  0.140619  0.000000
  0S   2pz        0.086343  0.024919 -0.000000 -1.069142  0.228513  0.000000
  0S   2px       -0.000000  0.000000  1.047564 -0.000000  0.000000 -0.007443
  0S   2py        0.691410  0.058880 -0.000000  0.204877  1.210536 -0.000000
  0S   4s         0.215185  2.236428 -0.000000  0.100776 -0.113913  0.000000
  0S   3pz        0.124034  0.334277  0.000000  1.455231 -0.257515  0.000000
  0S   3px        0.000000 -0.000000 -1.380041  0.000000 -0.000000  0.000780
  0S   3py        1.001463 -0.114674  0.000000 -0.300793 -1.487616  0.000000
  1O   1s         0.062051  0.020344 -0.000000  0.003071  0.000842  0.000000
  1O   2s        -0.118608 -0.026967 -0.000000  0.006929 -0.044239 -0.000000
  1O   1pz        0.289117 -0.109664 -0.000000 -0.089536  0.128721  0.000000
  1O   1px        0.000000 -0.000000  0.068145 -0.000000 -0.000000 -0.657007
  1O   1py        0.222613 -0.099896 -0.000000 -0.042257  0.274038 -0.000000
  1O   3s        -0.755944 -0.457464 -0.000000 -0.170123  0.419909 -0.000000
  1O   2pz        0.326554 -0.010060 -0.000000 -0.140414  0.055255 -0.000000
  1O   2px        0.000000  0.000000  0.125420 -0.000000  0.000000  0.763359
  1O   2py        0.321798  0.092389 -0.000000  0.041999  0.173020  0.000001
  2O   1s        -0.040119  0.024434  0.000000  0.006330  0.001147  0.000000
  2O   2s         0.075066 -0.032083 -0.000000  0.015442  0.028865 -0.000000
  2O   1pz       -0.305330 -0.108379 -0.000000 -0.130604 -0.069079  0.000000
  2O   1px       -0.000000  0.000000  0.077781  0.000000 -0.000000  0.672075
  2O   1py        0.061098  0.101417  0.000000  0.119568  0.187658  0.000000
  2O   3s         0.480545 -0.532525 -0.000000 -0.367960 -0.322668 -0.000000
  2O   2pz       -0.330702  0.022756 -0.000000 -0.120280  0.027501 -0.000000
  2O   2px       -0.000000  0.000000  0.125025 -0.000000 -0.000000 -0.773409
  2O   2py        0.126880 -0.113886  0.000000 -0.026435  0.111110 -0.000001
                     24        25        26        27        28        29   
                   0.56315   0.64411   0.64418   0.65321   0.72435   1.06726
                   0.00000   0.00000   0.00000   0.00000   0.00000   0.00000
                  --------  --------  --------  --------  --------  --------
  0S   1s        -0.005791  0.000000 -0.000102  0.017655  0.000501 -0.001361
  0S   2s         0.002326 -0.000000  0.004665  0.030882  0.007769  0.015847
  0S   1pz        0.022432 -0.000000  0.002235 -0.029136  0.000963  0.010433
  0S   1px        0.000000  0.000630  0.000000 -0.000000  0.000000 -0.000000
  0S   1py       -0.002272  0.000002 -0.042772  0.003158 -0.031764 -0.058837
  0S   3s        -0.175691 -0.000001  0.012009  0.670575  0.043137  0.005761
  0S   2pz       -0.154598  0.000001 -0.012824  0.299840  0.008349 -0.063520
  0S   2px       -0.000000 -0.005618 -0.000000  0.000000  0.000000  0.000000
  0S   2py        0.012524 -0.000019  0.375408  0.007588  0.341344  0.568014
  0S   4s        -0.279993 -0.000001  0.023569  0.077988  0.010563 -0.198975
  0S   3pz       -0.465872 -0.000001  0.023586 -0.223879  0.014527 -0.133972
  0S   3px       -0.000000 -0.558944 -0.000028  0.000000  0.000000 -0.000000
  0S   3py       -0.008236 -0.000004  0.082111  0.033931 -0.456616  0.916548
  1O   1s        -0.025755 -0.000002  0.039477  0.024803  0.006659 -0.038224
  1O   2s         0.165118  0.000017 -0.346220 -0.124940 -0.017011  0.991067
  1O   1pz       -0.432677  0.000026 -0.515690 -0.537946  0.256098 -0.217313
  1O   1px       -0.000001 -0.662841 -0.000033  0.000000  0.000000 -0.000000
  1O   1py        0.468933  0.000011 -0.229775 -0.346573 -0.611887 -0.106304
  1O   3s         0.097090 -0.000008  0.154373 -0.036722  0.069435 -1.553368
  1O   2pz        0.499575 -0.000036  0.730668  0.789421 -0.301191  0.594621
  1O   2px        0.000001  0.923442  0.000046 -0.000000 -0.000000  0.000000
  1O   2py       -0.708314 -0.000021  0.420644  0.614484  0.914152  0.368373
  2O   1s        -0.029038  0.000002 -0.039652  0.022726 -0.003429  0.050998
  2O   2s         0.200187 -0.000018  0.372555 -0.131607  0.007349 -1.313970
  2O   1pz       -0.377306 -0.000030  0.595840 -0.507040 -0.269015  0.243561
  2O   1px        0.000001 -0.651593 -0.000032  0.000000  0.000000  0.000000
  2O   1py       -0.512451  0.000009 -0.177644  0.355807 -0.597085 -0.159675
  2O   3s         0.063126  0.000011 -0.223437  0.026803 -0.093291  2.049191
  2O   2pz        0.391352  0.000040 -0.806235  0.724403  0.316366 -0.650615
  2O   2px       -0.000001  0.897272  0.000044 -0.000000 -0.000000  0.000000
  2O   2py        0.755595 -0.000017  0.336233 -0.600149  0.851690  0.541631
                     30   
                   1.13034
                   0.00000
                  --------
  0S   1s        -0.010776
  0S   2s         0.039798
  0S   1pz        0.043983
  0S   1px        0.000000
  0S   1py        0.006286
  0S   3s        -0.264856
  0S   2pz       -0.381261
  0S   2px       -0.000000
  0S   2py       -0.107943
  0S   4s        -1.662736
  0S   3pz       -0.823676
  0S   3px       -0.000000
  0S   3py       -0.159185
  1O   1s         0.044446
  1O   2s        -1.407991
  1O   1pz        0.035275
  1O   1px        0.000000
  1O   1py        0.200217
  1O   3s         2.408532
  1O   2pz       -0.217518
  1O   2px       -0.000000
  1O   2py       -0.864648
  2O   1s         0.033724
  2O   2s        -1.067068
  2O   1pz       -0.000800
  2O   1px       -0.000000
  2O   1py       -0.172889
  2O   3s         1.816883
  2O   2pz       -0.104449
  2O   2px        0.000000
  2O   2py        0.708189



                    ********************************
                    * MULLIKEN POPULATION ANALYSIS *
                    ********************************

--------------------------------------------
MULLIKEN ATOMIC CHARGES AND SPIN POPULATIONS
--------------------------------------------
   0 S :    1.337233    0.092559
   1 O :   -0.220725    0.078903
   2 O :   -0.116508    0.828538
Sum of atomic charges         :    1.0000000
Sum of atomic spin populations:    1.0000000

-----------------------------------------------------
MULLIKEN REDUCED ORBITAL CHARGES AND SPIN POPULATIONS
-----------------------------------------------------
CHARGE
  0 S s       :     5.782133  s :     5.782133
      pz      :     3.064695  p :     8.880635
      px      :     3.042019
      py      :     2.773921
  1 O s       :     4.039089  s :     4.039089
      pz      :     1.556127  p :     4.181636
      px      :     1.359449
      py      :     1.266060
  2 O s       :     4.029363  s :     4.029363
      pz      :     1.114212  p :     4.087145
      px      :     1.598532
      py      :     1.374402

SPIN
  0 S s       :     0.094010  s :     0.094010
      pz      :     0.053233  p :    -0.001451
      px      :     0.004859
      py      :    -0.059544
  1 O s       :    -0.014426  s :    -0.014426
      pz      :     0.183503  p :     0.093329
      px      :    -0.112740
      py      :     0.022566
  2 O s       :    -0.000673  s :    -0.000673
      pz      :     0.680970  p :     0.829211
      px      :     0.107880
      py      :     0.040361


                     *******************************
                     * LOEWDIN POPULATION ANALYSIS *
                     *******************************

-------------------------------------------
LOEWDIN ATOMIC CHARGES AND SPIN POPULATIONS
-------------------------------------------
   0 S :    1.308994    0.096243
   1 O :   -0.212494    0.080478
   2 O :   -0.096500    0.823279

----------------------------------------------------
LOEWDIN REDUCED ORBITAL CHARGES AND SPIN POPULATIONS
----------------------------------------------------
CHARGE
  0 S s       :     5.628091  s :     5.628091
      pz      :     3.146300  p :     9.062915
      px      :     3.037886
      py      :     2.878729
  1 O s       :     3.829045  s :     3.829045
      pz      :     1.610889  p :     4.383449
      px      :     1.363050
      py      :     1.409510
  2 O s       :     3.846986  s :     3.846986
      pz      :     1.170109  p :     4.249514
      px      :     1.599064
      py      :     1.480341

SPIN
  0 S s       :     0.077047  s :     0.077047
      pz      :     0.060349  p :     0.019196
      px      :     0.004578
      py      :    -0.045731
  1 O s       :    -0.005252  s :    -0.005252
      pz      :     0.176129  p :     0.085730
      px      :    -0.111488
      py      :     0.021089
  2 O s       :     0.004561  s :     0.004561
      pz      :     0.667638  p :     0.818719
      px      :     0.106910
      py      :     0.044172


                      *****************************
                      * MAYER POPULATION ANALYSIS *
                      *****************************

  NA   - Mulliken gross atomic population
  ZA   - Total nuclear charge
  QA   - Mulliken gross atomic charge
  VA   - Mayer's total valence
  BVA  - Mayer's bonded valence
  FA   - Mayer's free valence

  ATOM       NA         ZA         QA         VA         BVA        FA
  0 S     14.6628    16.0000     1.3372     2.9665     2.9334     0.0330
  1 O      8.2207     8.0000    -0.2207     2.1076     2.0496     0.0579
  2 O      8.1165     8.0000    -0.1165     2.2443     1.7359     0.5084

  Mayer bond orders larger than 0.100000
B(  0-S ,  1-O ) :   1.6236 B(  0-S ,  2-O ) :   1.3098 B(  1-O ,  2-O ) :   0.4260 


-------
TIMINGS
-------

Total SCF time: 0 days 0 hours 0 min 8 sec 

Total time                  ....       8.044 sec
Sum of individual times     ....       7.561 sec  ( 94.0%)

Fock matrix formation       ....       6.917 sec  ( 86.0%)
  Split-RI-J                ....       0.970 sec  ( 14.0% of F)
  Chain of spheres X        ....       4.027 sec  ( 58.2% of F)
  XC integration            ....       1.831 sec  ( 26.5% of F)
    Basis function eval.    ....       0.496 sec  ( 27.1% of XC)
    Density eval.           ....       0.308 sec  ( 16.8% of XC)
    XC-Functional eval.     ....       0.389 sec  ( 21.3% of XC)
    XC-Potential eval.      ....       0.216 sec  ( 11.8% of XC)
Diagonalization             ....       0.024 sec  (  0.3%)
Density matrix formation    ....       0.008 sec  (  0.1%)
Population analysis         ....       0.005 sec  (  0.1%)
Initial guess               ....       0.028 sec  (  0.4%)
Orbital Transformation      ....       0.058 sec  (  0.7%)
Orbital Orthonormalization  ....       0.000 sec  (  0.0%)
DIIS solution               ....       0.026 sec  (  0.3%)
Grid generation             ....       0.494 sec  (  6.1%)

Maximum memory used throughout the entire SCF-calculation: 43.8 MB


-------------------------------------------------------------------------------
                          DFT DISPERSION CORRECTION                            
                                                                               
                              DFTD3 V3.1  Rev 1                                
                          USING Becke-Johnson damping                          
-------------------------------------------------------------------------------
The B3LYP functional is recognized
Active option DFTDOPT                   ...         4   

molecular C6(AA) [au] = 331.243651 


            DFT-D V3
 parameters
 s6 scaling factor         :     1.0000 
 a1 scaling factor         :     0.3981 
 s8 scaling factor         :     1.9889 
 a2 scaling factor         :     4.4211 
 ad hoc parameters k1-k3   :    16.0000     1.3333    -4.0000 

 Edisp/kcal,au: -1.579007628924  -0.002516308559 
 E6   /kcal   :  -0.666166783 
 E8   /kcal   :  -0.912840846 
 % E8         :  57.811047193 

-------------------------   ----------------
Dispersion correction           -0.002516309
-------------------------   ----------------


-------------------------   --------------------
FINAL SINGLE POINT ENERGY      -549.725632289646
-------------------------   --------------------



           ************************************************************
           *        Program running with 2 parallel MPI-processes     *
           *              working on a common directory               *
           ************************************************************
------------------------------------------------------------------------------
                         ORCA SCF GRADIENT CALCULATION
------------------------------------------------------------------------------

 ... reading COSX grid (gridx3)
Gradient of the Kohn-Sham DFT energy:
Kohn-Sham wavefunction type      ... UKS
Hartree-Fock exchange scaling    ...    0.200
Number of operators              ...    2
Number of atoms                  ...    3
Basis set dimensions             ...   31
Integral neglect threshold       ... 2.5e-11
Integral primitive cutoff        ... 2.5e-12
SHARK Integral package           ... ON

Nuc. rep. gradient       (SHARK) ... done (  0.0 sec)
HCore & Overlap gradient (SHARK) ... done (  0.0 sec)
RI-J gradient            (SHARK) ... done (  0.1 sec)
COSX-gradient                    ... done (  0.3 sec)
Exchange-correlation gradient    ... done
Dispersion correction            ... done

------------------
CARTESIAN GRADIENT
------------------

   1   S   :    0.000000024    0.000402230    0.085411588
   2   O   :   -0.000000110   -0.081229879   -0.039657801
   3   O   :   -0.000000083    0.080637463   -0.045711971

Difference to translation invariance:
           :   -0.0000001692   -0.0001901863    0.0000418159

Difference to rotation invariance:
           :    0.0004742943   -0.0000002900    0.0000000653

Norm of the cartesian gradient     ...    0.1551074474
RMS gradient                       ...    0.0517024825
MAX gradient                       ...    0.0854115879

-------
TIMINGS
-------

Total SCF gradient time            ...        0.748 sec

One electron gradient       ....       0.004 sec  (  0.6%)
RI-J Coulomb gradient       ....       0.114 sec  ( 15.3%)
COSX gradient               ....       0.316 sec  ( 42.2%)
XC gradient                 ....       0.149 sec  ( 19.9%)

Maximum memory used throughout the entire SCFGRAD-calculation: 33.3 MB

                            ***************************************
                            *     ORCA property calculations      *
                            ***************************************

                                    ---------------------
                                    Active property flags
                                    ---------------------
   (+) Dipole Moment


------------------------------------------------------------------------------
                       ORCA ELECTRIC PROPERTIES CALCULATION
------------------------------------------------------------------------------

Dipole Moment Calculation                       ... on
Quadrupole Moment Calculation                   ... off
Polarizability Calculation                      ... off
GBWName                                         ... ORCA.gbw
Electron density                                ... ORCA.scfp
The origin for moment calculation is the CENTER OF MASS  = ( 0.000000,  0.000000  0.755159)

-------------
DIPOLE MOMENT
-------------
                                X             Y             Z
Electronic contribution:     -0.00000      -0.16475      -0.67853
Nuclear contribution   :      0.00000       0.00000       0.02341
                        -----------------------------------------
Total Dipole Moment    :     -0.00000      -0.16475      -0.65512
                        -----------------------------------------
Magnitude (a.u.)       :      0.67552
Magnitude (Debye)      :      1.71703



--------------------
Rotational spectrum 
--------------------
 
Rotational constants in cm-1:     1.647766     0.311169     0.261741 
Rotational constants in MHz : 49398.787065  9328.599358  7846.790422 

 Dipole components along the rotational axes: 
x,y,z [a.u.] :     0.133522    -0.662190    -0.000000 
x,y,z [Debye]:     0.339386    -1.683153    -0.000000 

 

Timings for individual modules:

Sum of individual times         ...       10.848 sec (=   0.181 min)
GTO integral calculation        ...        0.667 sec (=   0.011 min)   6.2 %
Relativistic integrals          ...        0.482 sec (=   0.008 min)   4.4 %
SCF iterations                  ...        8.519 sec (=   0.142 min)  78.5 %
SCF Gradient evaluation         ...        1.180 sec (=   0.020 min)  10.9 %
                             ****ORCA TERMINATED NORMALLY****
TOTAL RUN TIME: 0 days 0 hours 0 minutes 11 seconds 425 msec
