
                                 *****************
                                 * O   R   C   A *
                                 *****************

                                            #,                                       
                                            ###                                      
                                            ####                                     
                                            #####                                    
                                            ######                                   
                                           ########,                                 
                                     ,,################,,,,,                         
                               ,,#################################,,                 
                          ,,##########################################,,             
                       ,#########################################, ''#####,          
                    ,#############################################,,   '####,        
                  ,##################################################,,,,####,       
                ,###########''''           ''''###############################       
              ,#####''   ,,,,##########,,,,          '''####'''          '####       
            ,##' ,,,,###########################,,,                        '##       
           ' ,,###''''                  '''############,,,                           
         ,,##''                                '''############,,,,        ,,,,,,###''
      ,#''                                            '''#######################'''  
     '                                                          ''''####''''         
             ,#######,   #######,   ,#######,      ##                                
            ,#'     '#,  ##    ##  ,#'     '#,    #''#        ######   ,####,        
            ##       ##  ##   ,#'  ##            #'  '#       #        #'  '#        
            ##       ##  #######   ##           ,######,      #####,   #    #        
            '#,     ,#'  ##    ##  '#,     ,#' ,#      #,         ##   #,  ,#        
             '#######'   ##     ##  '#######'  #'      '#     #####' # '####'        



                  #######################################################
                  #                        -***-                        #
                  #          Department of theory and spectroscopy      #
                  #    Directorship and core code : Frank Neese         #
                  #        Max Planck Institute fuer Kohlenforschung    #
                  #                Kaiser Wilhelm Platz 1               #
                  #                 D-45470 Muelheim/Ruhr               #
                  #                      Germany                        #
                  #                                                     #
                  #                  All rights reserved                #
                  #                        -***-                        #
                  #######################################################


                         Program Version 5.0.4 -  RELEASE  -


 With contributions from (in alphabetic order):
   Daniel Aravena         : Magnetic Suceptibility
   Michael Atanasov       : Ab Initio Ligand Field Theory (pilot matlab implementation)
   Alexander A. Auer      : GIAO ZORA, VPT2 properties, NMR spectrum
   Ute Becker             : Parallelization
   Giovanni Bistoni       : ED, misc. LED, open-shell LED, HFLD
   Martin Brehm           : Molecular dynamics
   Dmytro Bykov           : SCF Hessian
   Vijay G. Chilkuri      : MRCI spin determinant printing, contributions to CSF-ICE
   Dipayan Datta          : RHF DLPNO-CCSD density
   Achintya Kumar Dutta   : EOM-CC, STEOM-CC
   Dmitry Ganyushin       : Spin-Orbit,Spin-Spin,Magnetic field MRCI
   Miquel Garcia          : C-PCM and meta-GGA Hessian, CC/C-PCM, Gaussian charge scheme
   Yang Guo               : DLPNO-NEVPT2, F12-NEVPT2, CIM, IAO-localization
   Andreas Hansen         : Spin unrestricted coupled pair/coupled cluster methods
   Benjamin Helmich-Paris : MC-RPA, TRAH-SCF, COSX integrals
   Lee Huntington         : MR-EOM, pCC
   Robert Izsak           : Overlap fitted RIJCOSX, COSX-SCS-MP3, EOM
   Marcus Kettner         : VPT2
   Christian Kollmar      : KDIIS, OOCD, Brueckner-CCSD(T), CCSD density, CASPT2, CASPT2-K
   Simone Kossmann        : Meta GGA functionals, TD-DFT gradient, OOMP2, MP2 Hessian
   Martin Krupicka        : Initial AUTO-CI
   Lucas Lang             : DCDCAS
   Marvin Lechner         : AUTO-CI (C++ implementation), FIC-MRCC
   Dagmar Lenk            : GEPOL surface, SMD
   Dimitrios Liakos       : Extrapolation schemes; Compound Job, initial MDCI parallelization
   Dimitrios Manganas     : Further ROCIS development; embedding schemes
   Dimitrios Pantazis     : SARC Basis sets
   Anastasios Papadopoulos: AUTO-CI, single reference methods and gradients
   Taras Petrenko         : DFT Hessian,TD-DFT gradient, ASA, ECA, R-Raman, ABS, FL, XAS/XES, NRVS
   Peter Pinski           : DLPNO-MP2, DLPNO-MP2 Gradient
   Christoph Reimann      : Effective Core Potentials
   Marius Retegan         : Local ZFS, SOC
   Christoph Riplinger    : Optimizer, TS searches, QM/MM, DLPNO-CCSD(T), (RO)-DLPNO pert. Triples
   Tobias Risthaus        : Range-separated hybrids, TD-DFT gradient, RPA, STAB
   Michael Roemelt        : Original ROCIS implementation
   Masaaki Saitow         : Open-shell DLPNO-CCSD energy and density
   Barbara Sandhoefer     : DKH picture change effects
   Avijit Sen             : IP-ROCIS
   Kantharuban Sivalingam : CASSCF convergence, NEVPT2, FIC-MRCI
   Bernardo de Souza      : ESD, SOC TD-DFT
   Georgi Stoychev        : AutoAux, RI-MP2 NMR, DLPNO-MP2 response
   Willem Van den Heuvel  : Paramagnetic NMR
   Boris Wezisla          : Elementary symmetry handling
   Frank Wennmohs         : Technical directorship


 We gratefully acknowledge several colleagues who have allowed us to
 interface, adapt or use parts of their codes:
   Stefan Grimme, W. Hujo, H. Kruse, P. Pracht,  : VdW corrections, initial TS optimization,
                  C. Bannwarth, S. Ehlert          DFT functionals, gCP, sTDA/sTD-DF
   Ed Valeev, F. Pavosevic, A. Kumar             : LibInt (2-el integral package), F12 methods
   Garnet Chan, S. Sharma, J. Yang, R. Olivares  : DMRG
   Ulf Ekstrom                                   : XCFun DFT Library
   Mihaly Kallay                                 : mrcc  (arbitrary order and MRCC methods)
   Jiri Pittner, Ondrej Demel                    : Mk-CCSD
   Frank Weinhold                                : gennbo (NPA and NBO analysis)
   Christopher J. Cramer and Donald G. Truhlar   : smd solvation model
   Lars Goerigk                                  : TD-DFT with DH, B97 family of functionals
   V. Asgeirsson, H. Jonsson                     : NEB implementation
   FAccTs GmbH                                   : IRC, NEB, NEB-TS, DLPNO-Multilevel, CI-OPT
                                                   MM, QMMM, 2- and 3-layer-ONIOM, Crystal-QMMM,
                                                   LR-CPCM, SF, NACMEs, symmetry and pop. for TD-DFT,
                                                   nearIR, NL-DFT gradient (VV10), updates on ESD,
                                                   ML-optimized integration grids
   S Lehtola, MJT Oliveira, MAL Marques          : LibXC Library
   Liviu Ungur et al                             : ANISO software


 Your calculation uses the libint2 library for the computation of 2-el integrals
 For citations please refer to: http://libint.valeyev.net

 Your ORCA version has been built with support for libXC version: 5.1.0
 For citations please refer to: https://tddft.org/programs/libxc/

 This ORCA versions uses:
   CBLAS   interface :  Fast vector & matrix operations
   LAPACKE interface :  Fast linear algebra routines
   SCALAPACK package :  Parallel linear algebra routines
   Shared memory     :  Shared parallel matrices
   BLAS/LAPACK       :  OpenBLAS 0.3.15  USE64BITINT DYNAMIC_ARCH NO_AFFINITY Zen SINGLE_THREADED
        Core in use  :  Zen
   Copyright (c) 2011-2014, The OpenBLAS Project


SCAN-COORDS
Your calculation utilizes the atom-pairwise dispersion correction
with the Becke-Johnson damping scheme (D3BJ)
Cite in your paper:
S.Grimme, S.Ehrlich, L.Goerigk, J Comput Chem, (2011), 32, 1456–1465 
S.Grimme, J.Antony, S.Ehrlich and H.Krieg, J.Chem.Phys., 132, (2010), 154104 
   

================================================================================

----- Orbital basis set information -----
Your calculation utilizes the basis: 6-31G
   H-He, Li-Ne : W. J. Hehre, R. Ditchfield and J.A. Pople, J. Chem. Phys. 56, 2257 (1972).
                 Note: He and Ne are unpublished basis sets taken from the Gaussian program.
                 Note: Li and B from J. D. Dill and J. A. Pople, J. Chem. Phys. 62, 2921 (1975).
   Na - Ar     : M. M. Francl, W. J. Pietro, W. J. Hehre, J. S. Binkley, M. S. Gordon, 
                 D. J. DeFrees and J. A. Pople, J. Chem. Phys. 77, 3654 (1982).
   K - Zn      : V. A. Rassolov, J. A. Pople, M. A. Ratner, and T. L. Windus, J. Chem. Phys. 109, 1223 (1998).

The basis set includes element-specific modifications.

Your calculation utilizes the basis: cc-pVQZ 
       H, B-Ne : Obtained from the ccRepo (grant-hill.group.shef.ac.uk/ccrepo) Feb. 2017
                 T. H. Dunning, Jr., J. Chem. Phys. 90, 1007 (1989)
            He : Obtained from the ccRepo (grant-hill.group.shef.ac.uk/ccrepo) Feb. 2017
                 D. E. Woon, T. H. Dunning, Jr., J. Chem. Phys. 100, 2975 (1994)
  Li-Be, Na-Mg : Obtained from the ccRepo (grant-hill.group.shef.ac.uk/ccrepo) Feb. 2017
                 B. P. Prascher, D. E. Woon, K. A. Peterson, T. H. Dunning, Jr., A. K. Wilson, Theor. Chem. Acc. 128, 69 (2011)
         Al-Ar : Obtained from the ccRepo (grant-hill.group.shef.ac.uk/ccrepo) Feb. 2017
                 D. E. Woon, T. H. Dunning, Jr., J. Chem. Phys. 98, 1358 (1993)
            Ca : Obtained from the Peterson Research Group Website (tyr0.chem.wsu.edu/~kipeters) Feb. 2017
                 J. Koput, K. A. Peterson, J. Phys. Chem. 106, 9595 (2002)
         Sc-Zn : Obtained from the ccRepo (grant-hill.group.shef.ac.uk/ccrepo) Feb. 2017
                 N. B. Balabanov, K. A. Peterson, J. Chem. Phys. 123, 064107 (2005)
                 N. B. Balabanov, K. A. Peterson, J. Chem. Phys. 125, 074110 (2006)
         Ga-Kr : Obtained from the ccRepo (grant-hill.group.shef.ac.uk/ccrepo) Feb. 2017
                 A. K. Wilson, D. E. Woon, K. A. Peterson, T. H. Dunning, Jr., J. Chem. Phys. 110, 7667 (1999)

----- AuxJ basis set information -----
Your calculation utilizes the auxiliary basis: SARC/J 
   decontracted def2/J up to Kr:
   F. Weigend, Phys. Chem. Chem. Phys. 8, 1057 (2006)
   and SARC auxiliary basis sets beyond Kr:
   D. A. Pantazis and F. Neese, J. Chem. Theory Comput. 5, 2229 (2009).
   D. A. Pantazis, X. Y. Chen, C. R. Landis and F. Neese, J. Chem. Theory Comput. 4, 908 (2008).
   D. A. Pantazis and F. Neese, Theor. Chem. Acc. 131, 1292 (2012).
   D. A. Pantazis and F. Neese, J. Chem. Theory Comput. 7, 677 (2011).

================================================================================
                                        WARNINGS
                       Please study these warnings very carefully!
================================================================================


WARNING: your system is open-shell and RHF/RKS was chosen
  ===> : WILL SWITCH to UHF/UKS


WARNING: In scalar relativistic gradient/hessian runs we need the one-center approximation
  ===> : %rel OneCenter is turned on
INFO   : Checking CIS options ...

WARNING: CIS/ROCIS methods need fully converged wavefunctions
  ===> : Setting SCFConvForced true
         You can overwrite this default with %scf ConvForced false 


INFO   : the flag for use of the SHARK integral package has been found!

================================================================================
                                       INPUT FILE
================================================================================
NAME = ORCA.inp
|  1> ! 6-31G b3lyp D3 rijcosx tightscf zora nousesym engrad
|  2> %pal
|  3> 	nprocs 2
|  4> end
|  5> 
|  6> %maxcore 1000
|  7> 
|  8> %basis
|  9> 	newgto F "cc-pvqz" end
| 10> end
| 11> 
| 12> %method
| 13> 	frozencore -14
| 14> end
| 15> 
| 16> %tddft
| 17> 	tda true
| 18> 	nroots 1
| 19> 	sgradlist 0,1
| 20> end
| 21> 
| 22> %output
| 23> 	Print[ P_MOs ] 1
| 24> end
| 25> 
| 26> %scf
| 27> 	maxiter 700
| 28> end
| 29> 
| 30> %coords
| 31> 	Ctyp xyz
| 32> 	units bohrs
| 33> 	charge 1
| 34> 	mult 4
| 35> 	coords
| 36> 	S         0.000000000      0.000000000      0.000000000
| 37> 	O         0.000000000      2.456643962      1.417294593
| 38> 	O         0.000000000     -2.456643962      1.606267206
| 39> end
| 40> end
| 41> 
| 42> 
| 43>                          ****END OF INPUT****
================================================================================

                     *******************************
                     * Energy+Gradient Calculation *
                     *******************************

---------------------------------
CARTESIAN COORDINATES (ANGSTROEM)
---------------------------------
  S      0.000000    0.000000    0.000000
  O      0.000000    1.300000    0.750000
  O      0.000000   -1.300000    0.850000

----------------------------
CARTESIAN COORDINATES (A.U.)
----------------------------
  NO LB      ZA    FRAG     MASS         X           Y           Z
   0 S    16.0000    0    32.060    0.000000    0.000000    0.000000
   1 O     8.0000    0    15.999    0.000000    2.456644    1.417295
   2 O     8.0000    0    15.999    0.000000   -2.456644    1.606267

--------------------------------
INTERNAL COORDINATES (ANGSTROEM)
--------------------------------
 S      0   0   0     0.000000000000     0.00000000     0.00000000
 O      1   0   0     1.500833094468     0.00000000     0.00000000
 O      1   2   0     1.553222449074   116.83984898     0.00000000

---------------------------
INTERNAL COORDINATES (A.U.)
---------------------------
 S      0   0   0     0.000000000000     0.00000000     0.00000000
 O      1   0   0     2.836163521269     0.00000000     0.00000000
 O      1   2   0     2.935165053809   116.83984898     0.00000000

---------------------
BASIS SET INFORMATION
---------------------
There are 2 groups of distinct atoms

 Group   1 Type S   : 16s10p contracted to 4s3p pattern {6631/631}
 Group   2 Type O   : 10s4p contracted to 3s2p pattern {631/31}

Atom   0S    basis set group =>   1
Atom   1O    basis set group =>   2
Atom   2O    basis set group =>   2
---------------------------------
AUXILIARY/J BASIS SET INFORMATION
---------------------------------
There are 2 groups of distinct atoms

 Group   1 Type S   : 14s5p5d2f1g contracted to 14s5p5d2f1g pattern {11111111111111/11111/11111/11/1}
 Group   2 Type O   : 12s5p4d2f1g contracted to 12s5p4d2f1g pattern {111111111111/11111/1111/11/1}

Atom   0S    basis set group =>   1
Atom   1O    basis set group =>   2
Atom   2O    basis set group =>   2


           ************************************************************
           *        Program running with 2 parallel MPI-processes     *
           *              working on a common directory               *
           ************************************************************
------------------------------------------------------------------------------
                           ORCA GTO INTEGRAL CALCULATION
                           -- RI-GTO INTEGRALS CHOSEN --
------------------------------------------------------------------------------
------------------------------------------------------------------------------
                   ___                                                        
                  /   \      - P O W E R E D   B Y -                         
                 /     \                                                     
                 |  |  |   _    _      __       _____    __    __             
                 |  |  |  | |  | |    /  \     |  _  \  |  |  /  |          
                  \  \/   | |  | |   /    \    | | | |  |  | /  /          
                 / \  \   | |__| |  /  /\  \   | |_| |  |  |/  /          
                |  |  |   |  __  | /  /__\  \  |    /   |      \           
                |  |  |   | |  | | |   __   |  |    \   |  |\   \          
                \     /   | |  | | |  |  |  |  | |\  \  |  | \   \       
                 \___/    |_|  |_| |__|  |__|  |_| \__\ |__|  \__/        
                                                                              
                      - O R C A' S   B I G   F R I E N D -                    
                                      &                                       
                       - I N T E G R A L  F E E D E R -                       
                                                                              
 v1 FN, 2020, v2 2021                                                         
------------------------------------------------------------------------------


Reading SHARK input file ORCA.SHARKINP.tmp ... ok
----------------------
SHARK INTEGRAL PACKAGE
----------------------

Number of atoms                             ...      3
Number of basis functions                   ...     31
Number of shells                            ...     17
Maximum angular momentum                    ...      1
Integral batch strategy                     ... SHARK/LIBINT Hybrid
RI-J (if used) integral strategy            ... SPLIT-RIJ (Revised 2003 algorithm where possible)
Printlevel                                  ...      1
Contraction scheme used                     ... SEGMENTED contraction
Coulomb Range Separation                    ... NOT USED
Exchange Range Separation                   ... NOT USED
Finite Nucleus Model                        ... NOT USED
Auxiliary Coulomb fitting basis             ... AVAILABLE
   # of basis functions in Aux-J            ...    217
   # of shells in Aux-J                     ...     75
   Maximum angular momentum in Aux-J        ...      4
Auxiliary J/K fitting basis                 ... NOT available
Auxiliary Correlation fitting basis         ... NOT available
Auxiliary 'external' fitting basis          ... NOT available
Integral threshold                          ...     2.500000e-11
Primitive cut-off                           ...     2.500000e-12
Primitive pair pre-selection threshold      ...     2.500000e-12

Calculating pre-screening integrals         ... done (  0.0 sec) Dimension = 17
Organizing shell pair data                  ... done (  0.0 sec)
Shell pair information
Total number of shell pairs                 ...       153
Shell pairs after pre-screening             ...       150
Total number of primitive shell pairs       ...      1578
Primitive shell pairs kept                  ...      1221
          la=0 lb=0:     52 shell pairs
          la=1 lb=0:     70 shell pairs
          la=1 lb=1:     28 shell pairs

Calculating one electron integrals          ... done (  0.0 sec)
Calculating RI/J V-Matrix + Cholesky decomp.... done (  0.0 sec)
Calculating Nuclear repulsion               ... done (  0.0 sec) ENN=    101.756797918274 Eh

SHARK setup successfully completed in   0.2 seconds

Maximum memory used throughout the entire GTOINT-calculation: 8.1 MB


           ************************************************************
           *        Program running with 2 parallel MPI-processes     *
           *              working on a common directory               *
           ************************************************************
------------------------------------------------------------------------------
                          ORCA RELATIVISTIC HAMILTONIAN
------------------------------------------------------------------------------

Relativistic Method            ... ZORA(MP)
Treatment of potential         ... Van Wuellen
Nucleus model                  ... Point Nucleus
Speed of light used            ... 137.03598950000000


            *************************************************
            *         ZERO ORDER REGULAR APPROXIMATION      *
            *                     ZORA(MP)                  *
            *            Programmed by FN according to      *
            *                   C. van Wuellen              *
            *       J. Chem. Phys. (1998) vol 109, 392-399  *
            *************************************************

Terms included in model potential: +V(e,N)+V(C)+V(Xa)+V(VWN-V)
Basis function cutoff value   ... 1.000000e-11
Loading the fitted atomic densities (ZORA)   ... done
Calculating the cutoffs                      ... done
Number of fit functions                      ... 38
One center approximation for ZORA is active
Finding unique atoms                  ... 2 atom types
AtomType   0 (S ) Member=  0 NMembers=   1, NRad=2000 NumBF= 13
             ... doing numerical integration
             ... adding submatrices to 1 actual atoms
AtomType   1 (O ) Member=  1 NMembers=   2, NRad=2000 NumBF=  9
             ... doing numerical integration
             ... adding submatrices to 2 actual atoms
             ... done with one-center part

Maximum memory used throughout the entire REL-calculation: 0.5 MB


           ************************************************************
           *        Program running with 2 parallel MPI-processes     *
           *              working on a common directory               *
           ************************************************************
-------------------------------------------------------------------------------
                                 ORCA SCF
-------------------------------------------------------------------------------

------------
SCF SETTINGS
------------
Hamiltonian:
 Density Functional     Method          .... DFT(GTOs)
 Exchange Functional    Exchange        .... B88
   X-Alpha parameter    XAlpha          ....  0.666667
   Becke's b parameter  XBeta           ....  0.004200
 Correlation Functional Correlation     .... LYP
 LDA part of GGA corr.  LDAOpt          .... VWN-5
 Gradients option       PostSCFGGA      .... off
 Hybrid DFT is turned on
   Fraction HF Exchange ScalHFX         ....  0.200000
   Scaling of DF-GGA-X  ScalDFX         ....  0.720000
   Scaling of DF-GGA-C  ScalDFC         ....  0.810000
   Scaling of DF-LDA-C  ScalLDAC        ....  1.000000
   Perturbative correction              ....  0.000000
   Density functional embedding theory  .... OFF
   NL short-range parameter             ....  4.800000
 RI-approximation to the Coulomb term is turned on
   Number of AuxJ basis functions       .... 217
   RIJ-COSX (HFX calculated with COS-X)).... on

Relativistic Settings:
 Scalar relativistic method             .... ZORA
 Speed of light used       Velit        ....       137.035989
Orbital energies will be scaled


General Settings:
 Integral files         IntName         .... ORCA
 Hartree-Fock type      HFTyp           .... UHF
 Total Charge           Charge          ....    1
 Multiplicity           Mult            ....    4
 Number of Electrons    NEL             ....   31
 Basis Dimension        Dim             ....   31
 Nuclear Repulsion      ENuc            ....    101.7567979183 Eh

Convergence Acceleration:
 DIIS                   CNVDIIS         .... on
   Start iteration      DIISMaxIt       ....    12
   Startup error        DIISStart       ....  0.200000
   # of expansion vecs  DIISMaxEq       ....     5
   Bias factor          DIISBfac        ....   1.050
   Max. coefficient     DIISMaxC        ....  10.000
 Trust-Rad. Augm. Hess. CNVTRAH         .... auto
   Auto Start mean grad. ratio tolernc. ....  1.125000
   Auto Start start iteration           ....    20
   Auto Start num. interpolation iter.  ....    10
   Max. Number of Micro iterations      ....    16
   Max. Number of Macro iterations      .... Maxiter - #DIIS iter
   Number of Davidson start vectors     ....     2
   Converg. threshold I  (grad. norm)   ....   1.000e-05
   Converg. threshold II (energy diff.) ....   1.000e-08
   Grad. Scal. Fac. for Micro threshold ....   0.100
   Minimum threshold for Micro iter.    ....   0.010
   NR start threshold (gradient norm)   ....   0.001
   Initial trust radius                 ....   0.400
   Minimum AH scaling param. (alpha)    ....   1.000
   Maximum AH scaling param. (alpha)    .... 1000.000
   Orbital update algorithm             .... Taylor
   White noise on init. David. guess    .... on
   Maximum white noise                  ....   0.010
   Quad. conv. algorithm                .... NR
 SOSCF                  CNVSOSCF        .... off
 Level Shifting         CNVShift        .... on
   Level shift para.    LevelShift      ....    0.2500
   Turn off err/grad.   ShiftErr        ....    0.0010
 Zerner damping         CNVZerner       .... off
 Static damping         CNVDamp         .... on
   Fraction old density DampFac         ....    0.7000
   Max. Damping (<1)    DampMax         ....    0.9800
   Min. Damping (>=0)   DampMin         ....    0.0000
   Turn off err/grad.   DampErr         ....    0.1000
 Fernandez-Rico         CNVRico         .... off

SCF Procedure:
 Maximum # iterations   MaxIter         ....   700
 SCF integral mode      SCFMode         .... Direct
   Integral package                     .... SHARK and LIBINT hybrid scheme
 Reset frequency        DirectResetFreq ....    20
 Integral Threshold     Thresh          ....  2.500e-11 Eh
 Primitive CutOff       TCut            ....  2.500e-12 Eh

Convergence Tolerance:
 Convergence Check Mode ConvCheckMode   .... Total+1el-Energy
 Convergence forced     ConvForced      .... 1
 Energy Change          TolE            ....  1.000e-08 Eh
 1-El. energy change                    ....  1.000e-05 Eh
 DIIS Error             TolErr          ....  5.000e-07


Diagonalization of the overlap matrix:
Smallest eigenvalue                        ... 4.470e-02
Time for diagonalization                   ...    0.000 sec
Threshold for overlap eigenvalues          ... 1.000e-08
Number of eigenvalues below threshold      ... 0
Time for construction of square roots      ...    0.000 sec
Total time needed                          ...    0.001 sec

Time for model grid setup =    0.044 sec

------------------------------
INITIAL GUESS: MODEL POTENTIAL
------------------------------
Loading ZORA relativistic densities                ... done
Calculating cut-offs                               ... done
Initializing the effective Hamiltonian             ... done
Setting up the integral package (SHARK)            ... done
Starting the Coulomb interaction                   ... done (   0.0 sec)
Reading the grid                                   ... done
Mapping shells                                     ... done
Starting the XC term evaluation                    ... done (   0.0 sec)
  promolecular density results
     # of electrons  =     32.000724518
     EX              =    -41.522421870
     EC              =     -1.247424401
     EX+EC           =    -42.769846271
Transforming the Hamiltonian                       ... done (   0.0 sec)
Diagonalizing the Hamiltonian                      ... done (   0.0 sec)
Back transforming the eigenvectors                 ... done (   0.0 sec)
Now organizing SCF variables                       ... done
                      ------------------
                      INITIAL GUESS DONE (   0.1 sec)
                      ------------------
-------------------
DFT GRID GENERATION
-------------------

General Integration Accuracy     IntAcc      ... 4.388
Radial Grid Type                 RadialGrid  ... OptM3 with GC (2021)
Angular Grid (max. ang.)         AngularGrid ... 4 (Lebedev-302)
Angular grid pruning method      GridPruning ... 4 (adaptive)
Weight generation scheme         WeightScheme... Becke
Basis function cutoff            BFCut       ... 1.0000e-11
Integration weight cutoff        WCut        ... 1.0000e-14
Angular grids for H and He will be reduced by one unit
Partially contracted basis set               ... off
Rotationally invariant grid construction     ... off

Total number of grid points                  ...    19619
Total number of batches                      ...      309
Average number of points per batch           ...       63
Average number of grid points per atom       ...     6540
Time for grid setup =    0.243 sec

--------------------
COSX GRID GENERATION
--------------------

GRIDX 1
-------
General Integration Accuracy     IntAcc      ... 3.816
Radial Grid Type                 RadialGrid  ... OptM3 with GC (2021)
Angular Grid (max. ang.)         AngularGrid ... 1 (Lebedev-50)
Angular grid pruning method      GridPruning ... 4 (adaptive)
Weight generation scheme         WeightScheme... Becke
Basis function cutoff            BFCut       ... 1.0000e-11
Integration weight cutoff        WCut        ... 1.0000e-14
Angular grids for H and He will be reduced by one unit
Partially contracted basis set               ... on
Rotationally invariant grid construction     ... off

Total number of grid points                  ...     2382
Total number of batches                      ...       39
Average number of points per batch           ...       61
Average number of grid points per atom       ...      794
UseSFitting                                  ... on

GRIDX 2
-------
General Integration Accuracy     IntAcc      ... 4.020
Radial Grid Type                 RadialGrid  ... OptM3 with GC (2021)
Angular Grid (max. ang.)         AngularGrid ... 2 (Lebedev-110)
Angular grid pruning method      GridPruning ... 4 (adaptive)
Weight generation scheme         WeightScheme... Becke
Basis function cutoff            BFCut       ... 1.0000e-11
Integration weight cutoff        WCut        ... 1.0000e-14
Angular grids for H and He will be reduced by one unit
Partially contracted basis set               ... on
Rotationally invariant grid construction     ... off

Total number of grid points                  ...     5736
Total number of batches                      ...       91
Average number of points per batch           ...       63
Average number of grid points per atom       ...     1912
UseSFitting                                  ... on

GRIDX 3
-------
General Integration Accuracy     IntAcc      ... 4.338
Radial Grid Type                 RadialGrid  ... OptM3 with GC (2021)
Angular Grid (max. ang.)         AngularGrid ... 3 (Lebedev-194)
Angular grid pruning method      GridPruning ... 4 (adaptive)
Weight generation scheme         WeightScheme... Becke
Basis function cutoff            BFCut       ... 1.0000e-11
Integration weight cutoff        WCut        ... 1.0000e-14
Angular grids for H and He will be reduced by one unit
Partially contracted basis set               ... on
Rotationally invariant grid construction     ... off

Total number of grid points                  ...    13422
Total number of batches                      ...      211
Average number of points per batch           ...       63
Average number of grid points per atom       ...     4474
UseSFitting                                  ... on

Time for X-Grid setup             =    0.216 sec

--------------
SCF ITERATIONS
--------------
ITER       Energy         Delta-E        Max-DP      RMS-DP      [F,P]     Damp
               ***  Starting incremental Fock matrix formation  ***
  0   -549.5157823959   0.000000000000 0.08637679  0.00594856  0.0911803 0.7000
  1   -549.5767925433  -0.061010147392 0.05714369  0.00399684  0.0473827 0.7000
                               ***Turning on DIIS***
  2   -549.5984866967  -0.021694153423 0.09654958  0.00616726  0.0280794 0.0000
  3   -549.6368429933  -0.038356296585 0.04326489  0.00301233  0.0272689 0.0000
  4   -549.6458773373  -0.009034344011 0.00939202  0.00092835  0.0127584 0.0000
  5   -549.6468542496  -0.000976912273 0.00489167  0.00046348  0.0050443 0.0000
  6   -549.6470990669  -0.000244817325 0.00477144  0.00028686  0.0033492 0.0000
  7   -549.6472344038  -0.000135336878 0.00262910  0.00017154  0.0015231 0.0000
  8   -549.6472742437  -0.000039839932 0.00308384  0.00022264  0.0008918 0.0000
               *** Restarting incremental Fock matrix formation ***
                                   *** Resetting DIIS ***
  9   -549.6472969913  -0.000022747582 0.00078909  0.00005720  0.0003220 0.0000
 10   -549.6472970091  -0.000000017806 0.00041585  0.00003410  0.0004393 0.0000
 11   -549.6472983339  -0.000001324797 0.00026716  0.00001750  0.0001385 0.0000
 12   -549.6472983141   0.000000019762 0.00017902  0.00001280  0.0001736 0.0000
 13   -549.6472985699  -0.000000255774 0.00005183  0.00000350  0.0000112 0.0000
 14   -549.6472985745  -0.000000004566 0.00000751  0.00000061  0.0000021 0.0000
 15   -549.6472985753  -0.000000000801 0.00000308  0.00000025  0.0000012 0.0000
                 **** Energy Check signals convergence ****

               *****************************************************
               *                     SUCCESS                       *
               *           SCF CONVERGED AFTER  16 CYCLES          *
               *****************************************************

Old exchange energy                            =     -8.217645058 Eh
New exchange energy                            =     -8.217614653 Eh
Exchange energy change after final integration =      0.000030405 Eh
Total energy after final integration           =   -549.647268171 Eh
Final COS-X integration done in                =     0.235 sec

----------------
TOTAL SCF ENERGY
----------------

Total Energy       :         -549.64726817 Eh          -14956.66255 eV

Components:
Nuclear Repulsion  :          101.75679792 Eh            2768.94324 eV
Electronic Energy  :         -651.40406609 Eh          -17725.60579 eV
One Electron Energy:         -948.22219203 Eh          -25802.43762 eV
Two Electron Energy:          296.81812594 Eh            8076.83183 eV
Max COSX asymmetry :            0.00000199 Eh               0.00005 eV

Virial components:
Potential Energy   :        -1095.28008644 Eh          -29804.08636 eV
Kinetic Energy     :          545.63281827 Eh           14847.42381 eV
Virial Ratio       :            2.00735742


DFT components:
N(Alpha)           :       16.999999963190 electrons
N(Beta)            :       14.000001227100 electrons
N(Total)           :       31.000001190290 electrons
E(X)               :      -32.742011804096 Eh       
E(C)               :       -1.410231107077 Eh       
E(XC)              :      -34.152242911173 Eh       
DFET-embed. en.    :        0.000000000000 Eh       

---------------
SCF CONVERGENCE
---------------

  Last Energy change         ...   -4.7692e-10  Tolerance :   1.0000e-08
  Last MAX-Density change    ...    0.0000e+00  Tolerance :   1.0000e-07
  Last RMS-Density change    ...    0.0000e+00  Tolerance :   5.0000e-09
  Last DIIS Error            ...    7.0178e-07  Tolerance :   5.0000e-07

             **** THE GBW FILE WAS UPDATED (ORCA.gbw) ****
             **** DENSITY ORCA.scfp WAS UPDATED ****
             **** ENERGY FILE WAS UPDATED (ORCA.en.tmp) ****
----------------------
UHF SPIN CONTAMINATION
----------------------

Warning: in a DFT calculation there is little theoretical justification to 
         calculate <S**2> as in Hartree-Fock theory. We will do it anyways
         but you should keep in mind that the values have only limited relevance

Expectation value of <S**2>     :     3.765402
Ideal value S*(S+1) for S=1.5   :     3.750000
Deviation                       :     0.015402

             **** THE GBW FILE WAS UPDATED (ORCA.gbw) ****
             **** DENSITY ORCA.scfp WAS UPDATED ****
----------------
ORBITAL ENERGIES
----------------
                 SPIN UP ORBITALS
  NO   OCC          E(Eh)            E(eV) 
   0   1.0000     -90.022765     -2449.6440 
   1   1.0000     -19.664410      -535.0958 
   2   1.0000     -19.657969      -534.9205 
   3   1.0000      -8.504514      -231.4196 
   4   1.0000      -6.422342      -174.7608 
   5   1.0000      -6.415304      -174.5693 
   6   1.0000      -6.413770      -174.5275 
   7   1.0000      -1.535682       -41.7880 
   8   1.0000      -1.451588       -39.4997 
   9   1.0000      -1.022571       -27.8256 
  10   1.0000      -0.863364       -23.4933 
  11   1.0000      -0.853314       -23.2199 
  12   1.0000      -0.834190       -22.6995 
  13   1.0000      -0.769631       -20.9427 
  14   1.0000      -0.742918       -20.2158 
  15   1.0000      -0.707375       -19.2487 
  16   1.0000      -0.570903       -15.5351 
  17   0.0000      -0.329950        -8.9784 
  18   0.0000      -0.259379        -7.0581 
  19   0.0000      -0.038641        -1.0515 
  20   0.0000       0.044730         1.2172 
  21   0.0000       0.054712         1.4888 
  22   0.0000       0.082438         2.2433 
  23   0.0000       0.500395        13.6164 
  24   0.0000       0.527430        14.3521 
  25   0.0000       0.584738        15.9115 
  26   0.0000       0.610346        16.6084 
  27   0.0000       0.617938        16.8149 
  28   0.0000       0.677720        18.4417 
  29   0.0000       1.031108        28.0579 
  30   0.0000       1.093610        29.7586 

                 SPIN DOWN ORBITALS
  NO   OCC          E(Eh)            E(eV) 
   0   1.0000     -90.018128     -2449.5178 
   1   1.0000     -19.629957      -534.1583 
   2   1.0000     -19.625546      -534.0383 
   3   1.0000      -8.499784      -231.2909 
   4   1.0000      -6.420788      -174.7185 
   5   1.0000      -6.412009      -174.4796 
   6   1.0000      -6.399271      -174.1330 
   7   1.0000      -1.471382       -40.0383 
   8   1.0000      -1.367755       -37.2185 
   9   1.0000      -0.950947       -25.8766 
  10   1.0000      -0.788197       -21.4479 
  11   1.0000      -0.771047       -20.9812 
  12   1.0000      -0.759338       -20.6626 
  13   1.0000      -0.665411       -18.1067 
  14   0.0000      -0.561932       -15.2909 
  15   0.0000      -0.534254       -14.5378 
  16   0.0000      -0.436990       -11.8911 
  17   0.0000      -0.274845        -7.4789 
  18   0.0000      -0.213108        -5.7990 
  19   0.0000      -0.024308        -0.6615 
  20   0.0000       0.063721         1.7339 
  21   0.0000       0.064421         1.7530 
  22   0.0000       0.096315         2.6209 
  23   0.0000       0.565603        15.3908 
  24   0.0000       0.571624        15.5547 
  25   0.0000       0.640577        17.4310 
  26   0.0000       0.650967        17.7137 
  27   0.0000       0.654939        17.8218 
  28   0.0000       0.730656        19.8822 
  29   0.0000       1.074107        29.2279 
  30   0.0000       1.139727        31.0135 
------------------
MOLECULAR ORBITALS
------------------
                      0         1         2         3         4         5   
                 -90.02277 -19.66441 -19.65797  -8.50451  -6.42234  -6.41530
                   1.00000   1.00000   1.00000   1.00000   1.00000   1.00000
                  --------  --------  --------  --------  --------  --------
  0S   1s         0.997482  0.000006 -0.000009  0.278485 -0.000560 -0.005400
  0S   2s         0.009377 -0.000032  0.000108 -1.028001  0.002063  0.020216
  0S   1pz        0.000149  0.000012  0.000004 -0.018140 -0.008357 -0.991149
  0S   1px       -0.000000  0.000000  0.000000  0.000000 -0.000000  0.000000
  0S   1py        0.000015  0.000040  0.000065 -0.001684 -0.990714  0.008420
  0S   3s        -0.002766 -0.000197  0.000342 -0.032072 -0.000490 -0.003026
  0S   2pz       -0.000255 -0.000681  0.000631 -0.003316 -0.000334 -0.029223
  0S   2px        0.000000  0.000000 -0.000000  0.000000 -0.000000  0.000000
  0S   2py       -0.000035  0.000710  0.000786 -0.000432 -0.031755  0.000158
  0S   4s         0.000861 -0.004864  0.005120  0.008550 -0.000029 -0.001578
  0S   3pz       -0.000088 -0.002467  0.002398  0.000354  0.000082  0.006804
  0S   3px       -0.000000  0.000000 -0.000000 -0.000000  0.000000 -0.000000
  0S   3py       -0.000000  0.002633  0.002895  0.000062  0.007574 -0.000029
  1O   1s        -0.000017 -0.000846  0.995089  0.000067  0.000373  0.000182
  1O   2s        -0.000066 -0.000260  0.028284 -0.000152  0.000237 -0.000262
  1O   1pz       -0.000031 -0.000141 -0.001096 -0.000025  0.000163  0.000219
  1O   1px       -0.000000 -0.000000  0.000000  0.000000 -0.000000 -0.000000
  1O   1py       -0.000044  0.000050 -0.002167 -0.000023  0.000337  0.000159
  1O   3s         0.000303  0.000976 -0.014270  0.001275  0.000821  0.001648
  1O   2pz       -0.000153  0.000614  0.001766 -0.001068 -0.001701 -0.000983
  1O   2px       -0.000000  0.000000  0.000000  0.000000 -0.000000  0.000000
  1O   2py       -0.000343 -0.000796  0.003459 -0.002229 -0.002423 -0.002011
  2O   1s        -0.000016 -0.995087 -0.000810  0.000021 -0.000233  0.000127
  2O   2s        -0.000083 -0.028097  0.000214 -0.000175 -0.000301 -0.000227
  2O   1pz       -0.000021  0.001138  0.000138 -0.000045 -0.000026  0.000153
  2O   1px        0.000000  0.000000 -0.000000  0.000000  0.000000 -0.000000
  2O   1py        0.000023 -0.001927  0.000053  0.000037  0.000088 -0.000046
  2O   3s         0.000275  0.013710 -0.000937  0.001028 -0.000507  0.001562
  2O   2pz       -0.000162 -0.001862 -0.000539 -0.001055  0.001596 -0.001188
  2O   2px       -0.000000 -0.000000  0.000000 -0.000000 -0.000000  0.000000
  2O   2py        0.000318  0.003169 -0.000812  0.001955 -0.002010  0.001981
                      6         7         8         9        10        11   
                  -6.41377  -1.53568  -1.45159  -1.02257  -0.86336  -0.85331
                   1.00000   1.00000   1.00000   1.00000   1.00000   1.00000
                  --------  --------  --------  --------  --------  --------
  0S   1s        -0.000000 -0.042099 -0.004044  0.064936 -0.004431  0.008721
  0S   2s         0.000000  0.188899  0.017815 -0.283252  0.019226 -0.040206
  0S   1pz       -0.000000  0.063755  0.008711  0.006088 -0.058401  0.139187
  0S   1px       -0.991913  0.000000  0.000000  0.000000 -0.000000  0.000000
  0S   1py        0.000000  0.020398 -0.106068  0.008069  0.150772  0.059547
  0S   3s        -0.000000 -0.392376 -0.039858  0.712973 -0.048155  0.084515
  0S   2pz       -0.000000 -0.137373 -0.019368  0.007995  0.155853 -0.375707
  0S   2px       -0.026886 -0.000000 -0.000000 -0.000000  0.000000 -0.000000
  0S   2py        0.000000 -0.041219  0.218978 -0.016842 -0.410904 -0.163647
  0S   4s        -0.000000  0.058949  0.004064  0.179082 -0.005608  0.024298
  0S   3pz        0.000000  0.047670  0.006705 -0.004592  0.028887 -0.073662
  0S   3px        0.007204 -0.000000 -0.000000 -0.000000  0.000000 -0.000000
  0S   3py       -0.000000  0.014229 -0.075496  0.000268 -0.000627 -0.003149
  1O   1s         0.000000  0.151197 -0.133780  0.105915 -0.053617 -0.045142
  1O   2s         0.000000 -0.344808  0.307887 -0.257309  0.134781  0.105075
  1O   1pz        0.000000  0.069348 -0.059628 -0.098605  0.427089 -0.147031
  1O   1px        0.000163 -0.000000 -0.000000 -0.000000  0.000000 -0.000000
  1O   1py        0.000000  0.136267 -0.092883 -0.139065  0.096829  0.341870
  1O   3s         0.000000 -0.325935  0.304162 -0.331504  0.169565  0.179895
  1O   2pz       -0.000000  0.027277 -0.031661 -0.028413  0.216320 -0.112885
  1O   2px       -0.000122  0.000000  0.000000 -0.000000  0.000000 -0.000000
  1O   2py       -0.000000  0.065494 -0.048788 -0.028067  0.021538  0.153041
  2O   1s        -0.000000  0.111068  0.172957  0.103067  0.064951 -0.000265
  2O   2s        -0.000000 -0.253756 -0.398984 -0.252741 -0.160602 -0.006161
  2O   1pz        0.000000  0.052776  0.076191 -0.114012 -0.234689 -0.383261
  2O   1px        0.000156  0.000000 -0.000000  0.000000  0.000000 -0.000000
  2O   1py       -0.000000 -0.095278 -0.111511  0.143413  0.276343 -0.218486
  2O   3s         0.000000 -0.241021 -0.393285 -0.313636 -0.218480  0.027481
  2O   2pz       -0.000000  0.022202  0.042851 -0.036353 -0.097529 -0.224557
  2O   2px       -0.000145  0.000000 -0.000000  0.000000  0.000000 -0.000000
  2O   2py        0.000000 -0.050638 -0.064266  0.036103  0.114736 -0.112894
                     12        13        14        15        16        17   
                  -0.83419  -0.76963  -0.74292  -0.70738  -0.57090  -0.32995
                   1.00000   1.00000   1.00000   1.00000   1.00000   0.00000
                  --------  --------  --------  --------  --------  --------
  0S   1s        -0.000000 -0.000603 -0.000000 -0.029369  0.000000  0.029670
  0S   2s         0.000000  0.003046  0.000000  0.135735 -0.000000 -0.130068
  0S   1pz       -0.000000 -0.011314  0.000000 -0.158561  0.000000 -0.213670
  0S   1px        0.187756  0.000000 -0.006006 -0.000000 -0.250114  0.000000
  0S   1py        0.000000 -0.036542 -0.000000 -0.009037  0.000000  0.037652
  0S   3s        -0.000000 -0.005201 -0.000000 -0.310948  0.000000  0.376310
  0S   2pz        0.000000  0.030954 -0.000000  0.431169 -0.000000  0.688170
  0S   2px       -0.507797 -0.000000  0.016944  0.000000  0.739223 -0.000000
  0S   2py       -0.000000  0.092884  0.000000  0.024573 -0.000000 -0.115527
  0S   4s        -0.000000 -0.013527 -0.000000 -0.375048  0.000000  0.653245
  0S   3pz        0.000000  0.003214 -0.000000  0.021567  0.000000  0.587705
  0S   3px       -0.104540 -0.000000  0.009723  0.000000  0.254614  0.000000
  0S   3py        0.000000 -0.083649 -0.000000  0.005768 -0.000000 -0.076316
  1O   1s         0.000000  0.020240  0.000000  0.003906  0.000000  0.041174
  1O   2s         0.000000 -0.063134 -0.000000 -0.015076  0.000000 -0.093893
  1O   1pz        0.000000  0.287515  0.000000 -0.408674  0.000000 -0.038651
  1O   1px       -0.397634  0.000000 -0.469634 -0.000000 -0.380622  0.000000
  1O   1py       -0.000000 -0.407124 -0.000000 -0.114638 -0.000000  0.367191
  1O   3s        -0.000000 -0.010951  0.000000  0.050099 -0.000000 -0.414069
  1O   2pz        0.000000  0.159020  0.000000 -0.251249  0.000000  0.007587
  1O   2px       -0.219046  0.000000 -0.292097 -0.000000 -0.261809 -0.000000
  1O   2py       -0.000000 -0.238511 -0.000000 -0.070285 -0.000000  0.357465
  2O   1s         0.000000 -0.016467 -0.000000  0.003979 -0.000000  0.055060
  2O   2s        -0.000000  0.055633  0.000000 -0.019413  0.000000 -0.125898
  2O   1pz        0.000000 -0.302196 -0.000000 -0.397109  0.000000  0.084426
  2O   1px       -0.333149 -0.000000  0.532357  0.000000 -0.356764  0.000000
  2O   1py        0.000000 -0.424374 -0.000000  0.139850 -0.000000 -0.415125
  2O   3s        -0.000000 -0.001984  0.000000  0.060973 -0.000000 -0.526785
  2O   2pz        0.000000 -0.161192 -0.000000 -0.247884  0.000000  0.121037
  2O   2px       -0.182957 -0.000000  0.326771  0.000000 -0.239938  0.000000
  2O   2py        0.000000 -0.253210 -0.000000  0.094621 -0.000000 -0.410362
                     18        19        20        21        22        23   
                  -0.25938  -0.03864   0.04473   0.05471   0.08244   0.50040
                   0.00000   0.00000   0.00000   0.00000   0.00000   0.00000
                  --------  --------  --------  --------  --------  --------
  0S   1s        -0.004274  0.066341  0.000000 -0.008149 -0.003213 -0.002804
  0S   2s         0.021185 -0.076548 -0.000000  0.020186  0.005636  0.006849
  0S   1pz        0.019591 -0.020054  0.000000 -0.252680  0.054704  0.015407
  0S   1px        0.000000  0.000000  0.243005  0.000000 -0.000000  0.000000
  0S   1py        0.229896  0.005486  0.000000  0.049715  0.287391  0.001327
  0S   3s        -0.047797  1.622505  0.000000 -0.164789 -0.073288 -0.065522
  0S   2pz       -0.068709  0.080431 -0.000000  1.071054 -0.233152 -0.093900
  0S   2px       -0.000000 -0.000000 -1.045216 -0.000000  0.000000 -0.000000
  0S   2py       -0.756859 -0.028199 -0.000000 -0.206239 -1.201431 -0.007876
  0S   4s        -0.200020 -2.240041  0.000000  0.091743  0.040114 -0.287824
  0S   3pz       -0.105720 -0.456158  0.000000 -1.403284  0.254407 -0.538956
  0S   3px       -0.000000  0.000000  1.375070  0.000000 -0.000000 -0.000000
  0S   3py       -0.960265  0.088244  0.000000  0.307124  1.504144 -0.028459
  1O   1s        -0.062210 -0.019950 -0.000000 -0.001041  0.000005 -0.024184
  1O   2s         0.130944  0.030587  0.000000 -0.009412  0.037439  0.161354
  1O   1pz       -0.265258  0.121129 -0.000000  0.090051 -0.118970 -0.449611
  1O   1px        0.000000  0.000000 -0.073194 -0.000000  0.000000 -0.000000
  1O   1py       -0.223075  0.107619 -0.000000  0.025145 -0.265840  0.406503
  1O   3s         0.725753  0.470074 -0.000000  0.120814 -0.411754  0.105265
  1O   2pz       -0.283389 -0.001365  0.000000  0.113494 -0.030921  0.562608
  1O   2px        0.000000 -0.000000 -0.115684 -0.000000 -0.000000  0.000000
  1O   2py       -0.310029 -0.094101 -0.000000 -0.028210 -0.141886 -0.625597
  2O   1s         0.042382 -0.024624 -0.000000 -0.004483 -0.002826 -0.023082
  2O   2s        -0.088887  0.039545  0.000000 -0.016757 -0.021564  0.162411
  2O   1pz        0.264607  0.111603 -0.000000  0.127554  0.063926 -0.458755
  2O   1px        0.000000 -0.000000 -0.080527 -0.000000  0.000000 -0.000000
  2O   1py       -0.095838 -0.100745 -0.000000 -0.106095 -0.194271 -0.446182
  2O   3s        -0.478536  0.536543 -0.000000  0.321811  0.340240  0.076067
  2O   2pz        0.256688 -0.042262 -0.000000  0.085477 -0.039465  0.570721
  2O   2px        0.000000  0.000000 -0.114573 -0.000000  0.000000  0.000000
  2O   2py       -0.163125  0.124299 -0.000000  0.016450 -0.084370  0.668915
                     24        25        26        27        28        29   
                   0.52743   0.58474   0.61035   0.61794   0.67772   1.03111
                   0.00000   0.00000   0.00000   0.00000   0.00000   0.00000
                  --------  --------  --------  --------  --------  --------
  0S   1s        -0.000000  0.000224 -0.019386  0.000000 -0.000272 -0.001342
  0S   2s        -0.000000  0.004467 -0.029238  0.000000  0.006402  0.015782
  0S   1pz        0.000000  0.001918  0.035114  0.000000  0.002452  0.010575
  0S   1px       -0.000256  0.000000 -0.000000 -0.000326 -0.000000  0.000000
  0S   1py       -0.000000 -0.041634 -0.002396 -0.000000 -0.041618 -0.061782
  0S   3s        -0.000000  0.021702 -0.715286  0.000000  0.013614  0.006673
  0S   2pz       -0.000000 -0.010094 -0.331903 -0.000000 -0.006321 -0.063083
  0S   2px        0.007312 -0.000000 -0.000000  0.002363  0.000000 -0.000000
  0S   2py        0.000000  0.327083 -0.016722  0.000000  0.411212  0.585272
  0S   4s         0.000000  0.008107 -0.068426 -0.000000  0.020564 -0.189976
  0S   3pz        0.000000 -0.016182  0.192285 -0.000000  0.036473 -0.129358
  0S   3px        0.000345 -0.000000  0.000000  0.575657  0.000000 -0.000000
  0S   3py       -0.000000  0.175923 -0.006638  0.000000 -0.485263  0.921267
  1O   1s        -0.000000  0.036751 -0.027513  0.000000  0.013651 -0.036857
  1O   2s         0.000000 -0.326736  0.154179 -0.000000 -0.102400  0.998227
  1O   1pz        0.000000 -0.585779  0.427997 -0.000000  0.175132 -0.206458
  1O   1px        0.644624 -0.000000 -0.000000  0.648855 -0.000000  0.000000
  1O   1py       -0.000000 -0.085590  0.426395  0.000000 -0.616792 -0.116847
  1O   3s        -0.000000  0.130015  0.013706  0.000000  0.145464 -1.580520
  1O   2pz       -0.000000  0.852470 -0.681337  0.000000 -0.205405  0.593591
  1O   2px       -0.773170  0.000000  0.000000 -0.931843  0.000000 -0.000000
  1O   2py        0.000000  0.220155 -0.741885  0.000000  0.950374  0.394524
  2O   1s         0.000000 -0.038105 -0.027088 -0.000000 -0.012720  0.047886
  2O   2s        -0.000000  0.361052  0.182860  0.000000  0.118555 -1.296999
  2O   1pz        0.000000  0.566186  0.453321  0.000000 -0.113605  0.229196
  2O   1px       -0.655105 -0.000000  0.000000  0.637098  0.000000  0.000000
  2O   1py       -0.000000 -0.070107 -0.390547 -0.000000 -0.618328 -0.174508
  2O   3s        -0.000000 -0.183662 -0.056938 -0.000000 -0.200485  2.046657
  2O   2pz       -0.000000 -0.818055 -0.703301 -0.000000  0.132693 -0.648922
  2O   2px        0.782821  0.000000 -0.000000 -0.908940 -0.000000  0.000000
  2O   2py        0.000000  0.181233  0.654813  0.000000  0.918885  0.565894
                     30   
                   1.09361
                   0.00000
                  --------
  0S   1s        -0.010906
  0S   2s         0.040388
  0S   1pz        0.045602
  0S   1px       -0.000000
  0S   1py        0.006128
  0S   3s        -0.267384
  0S   2pz       -0.389465
  0S   2px        0.000000
  0S   2py       -0.104891
  0S   4s        -1.689311
  0S   3pz       -0.834368
  0S   3px       -0.000000
  0S   3py       -0.155418
  1O   1s         0.041800
  1O   2s        -1.393367
  1O   1pz        0.037655
  1O   1px        0.000000
  1O   1py        0.201373
  1O   3s         2.411271
  1O   2pz       -0.224050
  1O   2px       -0.000000
  1O   2py       -0.875842
  2O   1s         0.032029
  2O   2s        -1.070392
  2O   1pz        0.006565
  2O   1px       -0.000000
  2O   1py       -0.177750
  2O   3s         1.843364
  2O   2pz       -0.118636
  2O   2px        0.000000
  2O   2py        0.726414

                      0         1         2         3         4         5   
                 -90.01813 -19.62996 -19.62555  -8.49978  -6.42079  -6.41201
                   1.00000   1.00000   1.00000   1.00000   1.00000   1.00000
                  --------  --------  --------  --------  --------  --------
  0S   1s        -0.997487 -0.000003  0.000006 -0.278498  0.000347  0.005747
  0S   2s        -0.009356  0.000023 -0.000094  1.028114 -0.001270 -0.021515
  0S   1pz       -0.000154 -0.000014  0.000001  0.019254 -0.031426  0.990750
  0S   1px        0.000000 -0.000000 -0.000000 -0.000000  0.000000  0.000000
  0S   1py       -0.000015 -0.000029 -0.000051  0.001731  0.990319  0.031345
  0S   3s         0.002751  0.000229 -0.000377  0.031616  0.000375  0.003196
  0S   2pz        0.000256  0.000655 -0.000617  0.003360 -0.000833  0.028939
  0S   2px       -0.000000 -0.000000  0.000000 -0.000000  0.000000  0.000000
  0S   2py        0.000035 -0.000699 -0.000785  0.000435  0.031495  0.001107
  0S   4s        -0.000859  0.004550 -0.004812 -0.008800 -0.000031  0.001500
  0S   3pz        0.000086  0.002303 -0.002249 -0.000523  0.000195 -0.006818
  0S   3px        0.000000 -0.000000  0.000000 -0.000000 -0.000000 -0.000000
  0S   3py        0.000000 -0.002438 -0.002695 -0.000063 -0.007640 -0.000278
  1O   1s         0.000017  0.001197 -0.995413 -0.000076 -0.000362 -0.000195
  1O   2s         0.000064  0.000258 -0.026509  0.000044 -0.000307  0.000237
  1O   1pz        0.000031  0.000135  0.001054  0.000046 -0.000142 -0.000267
  1O   1px       -0.000000  0.000000 -0.000000 -0.000000  0.000000 -0.000000
  1O   1py        0.000044 -0.000052  0.002114  0.000037 -0.000320 -0.000160
  1O   3s        -0.000299 -0.000933  0.013411 -0.000949 -0.000614 -0.001626
  1O   2pz        0.000152 -0.000567 -0.001676  0.001014  0.001594  0.001075
  1O   2px       -0.000000 -0.000000 -0.000000 -0.000000  0.000000 -0.000000
  1O   2py        0.000340  0.000748 -0.003303  0.002059  0.002287  0.002070
  2O   1s         0.000016  0.995434  0.001162 -0.000029  0.000236 -0.000117
  2O   2s         0.000082  0.026206 -0.000198  0.000063  0.000351  0.000224
  2O   1pz        0.000021 -0.001088 -0.000133  0.000066  0.000022 -0.000190
  2O   1px       -0.000000 -0.000000  0.000000 -0.000000 -0.000000 -0.000000
  2O   1py       -0.000023  0.001879 -0.000054 -0.000058 -0.000078  0.000029
  2O   3s        -0.000271 -0.012814  0.000894 -0.000711  0.000427 -0.001490
  2O   2pz        0.000161  0.001755  0.000500  0.000989 -0.001574  0.001143
  2O   2px        0.000000  0.000000 -0.000000  0.000000  0.000000  0.000000
  2O   2py       -0.000315 -0.003005  0.000764 -0.001788  0.002032 -0.001860
                      6         7         8         9        10        11   
                  -6.39927  -1.47138  -1.36775  -0.95095  -0.78820  -0.77105
                   1.00000   1.00000   1.00000   1.00000   1.00000   1.00000
                  --------  --------  --------  --------  --------  --------
  0S   1s        -0.000000  0.045983  0.005451 -0.062703 -0.000444  0.000000
  0S   2s         0.000000 -0.206139 -0.024131  0.273354  0.001229 -0.000000
  0S   1pz       -0.000000 -0.070518 -0.011201 -0.010520 -0.014220  0.000000
  0S   1px        0.992001  0.000000 -0.000000 -0.000000  0.000000 -0.187008
  0S   1py       -0.000000 -0.023204  0.119169 -0.006878  0.176301  0.000000
  0S   3s         0.000000  0.434404  0.053952 -0.693037 -0.007345  0.000000
  0S   2pz       -0.000000  0.158258  0.026126  0.001698  0.038616 -0.000000
  0S   2px        0.026626 -0.000000  0.000000  0.000000 -0.000000  0.498918
  0S   2py       -0.000000  0.048724 -0.257097  0.014462 -0.489443 -0.000000
  0S   4s         0.000000 -0.051481 -0.002205 -0.171663  0.009117  0.000000
  0S   3pz        0.000000 -0.048234 -0.006925  0.017418  0.009104 -0.000000
  0S   3px       -0.007279  0.000000  0.000000  0.000000 -0.000000  0.127084
  0S   3py        0.000000 -0.015248  0.075021  0.000355  0.000755 -0.000000
  1O   1s        -0.000000 -0.143390  0.128544 -0.112014 -0.072732 -0.000000
  1O   2s        -0.000000  0.312747 -0.284726  0.267370  0.176604  0.000000
  1O   1pz       -0.000000 -0.068127  0.058502  0.084289  0.240530  0.000000
  1O   1px       -0.000190  0.000000  0.000000  0.000000 -0.000000  0.361465
  1O   1py        0.000000 -0.140864  0.095321  0.131785  0.278408  0.000000
  1O   3s        -0.000000  0.322568 -0.306125  0.347164  0.243106  0.000000
  1O   2pz       -0.000000 -0.028748  0.032742  0.028454  0.124647 -0.000000
  1O   2px        0.000187 -0.000000 -0.000000  0.000000 -0.000000  0.226206
  1O   2py       -0.000000 -0.069754  0.050529  0.038670  0.124186  0.000000
  2O   1s         0.000000 -0.100952 -0.167235 -0.109340  0.072527  0.000000
  2O   2s         0.000000  0.219435  0.369660  0.262472 -0.177540 -0.000000
  2O   1pz        0.000000 -0.050511 -0.075927  0.093006 -0.228005 -0.000000
  2O   1px       -0.000178 -0.000000  0.000000 -0.000000 -0.000000  0.324389
  2O   1py       -0.000000  0.095047  0.117448 -0.125396  0.272692 -0.000000
  2O   3s         0.000000  0.229752  0.399221  0.330764 -0.239497 -0.000000
  2O   2pz       -0.000000 -0.022900 -0.045168  0.034421 -0.117448 -0.000000
  2O   2px        0.000206 -0.000000  0.000000 -0.000000 -0.000000  0.201970
  2O   2py       -0.000000  0.052986  0.068855 -0.041278  0.129462 -0.000000
                     12        13        14        15        16        17   
                  -0.75934  -0.66541  -0.56193  -0.53425  -0.43699  -0.27485
                   1.00000   1.00000   0.00000   0.00000   0.00000   0.00000
                  --------  --------  --------  --------  --------  --------
  0S   1s         0.017630 -0.000000 -0.003525 -0.022231 -0.000000  0.028820
  0S   2s        -0.082193  0.000000  0.017296  0.108529  0.000000 -0.127257
  0S   1pz        0.211826 -0.000000 -0.017300 -0.082408  0.000000 -0.198888
  0S   1px        0.000000 -0.001579 -0.000000  0.000000 -0.239578 -0.000000
  0S   1py        0.010117  0.000000 -0.030021 -0.001139 -0.000000  0.028048
  0S   3s         0.172032 -0.000000 -0.033573 -0.220123 -0.000000  0.364919
  0S   2pz       -0.579011  0.000000  0.047733  0.222094 -0.000000  0.648890
  0S   2px       -0.000000  0.004446  0.000000 -0.000000  0.700857  0.000000
  0S   2py       -0.027544  0.000000  0.098537 -0.000593  0.000000 -0.086412
  0S   4s         0.114524 -0.000000 -0.054582 -0.453765 -0.000000  0.683484
  0S   3pz       -0.126055  0.000000  0.002152 -0.061091 -0.000000  0.621603
  0S   3px       -0.000000 -0.005522  0.000000 -0.000000  0.302104  0.000000
  0S   3py        0.004857  0.000000  0.183427 -0.027072  0.000000 -0.065603
  1O   1s        -0.031099  0.000000  0.004283 -0.008952 -0.000000  0.044100
  1O   2s         0.066858  0.000000  0.006167  0.008180  0.000000 -0.097978
  1O   1pz       -0.117495 -0.000000 -0.363688 -0.389916 -0.000000 -0.068824
  1O   1px       -0.000000  0.451912 -0.000000 -0.000000 -0.379310 -0.000000
  1O   1py        0.299678  0.000000  0.308316 -0.088036 -0.000000  0.377965
  1O   3s         0.132741 -0.000000 -0.109396  0.154940 -0.000000 -0.442962
  1O   2pz       -0.108835 -0.000000 -0.243258 -0.312714 -0.000000 -0.037753
  1O   2px       -0.000000  0.321105 -0.000000 -0.000000 -0.294536 -0.000000
  1O   2py        0.159275  0.000000  0.241369 -0.073222 -0.000000  0.400059
  2O   1s        -0.025268  0.000000 -0.003123 -0.006713 -0.000000  0.055064
  2O   2s         0.051709 -0.000000 -0.012046  0.004642  0.000000 -0.121206
  2O   1pz       -0.086741  0.000000  0.254201 -0.478622 -0.000000  0.050006
  2O   1px       -0.000000 -0.504681  0.000000  0.000000 -0.346757 -0.000000
  2O   1py       -0.239795  0.000000  0.376590  0.003821  0.000000 -0.420052
  2O   3s         0.117390  0.000000  0.121052  0.120620  0.000000 -0.535238
  2O   2pz       -0.089554 -0.000000  0.160197 -0.375463 -0.000000  0.083036
  2O   2px       -0.000000 -0.352468  0.000000  0.000000 -0.261144 -0.000000
  2O   2py       -0.128810  0.000000  0.292604  0.010814  0.000000 -0.450325
                     18        19        20        21        22        23   
                  -0.21311  -0.02431   0.06372   0.06442   0.09631   0.56560
                   0.00000   0.00000   0.00000   0.00000   0.00000   0.00000
                  --------  --------  --------  --------  --------  --------
  0S   1s        -0.002984  0.067324  0.000000 -0.007993  0.003494 -0.000000
  0S   2s         0.016768 -0.079525 -0.000000  0.021294 -0.005855  0.000000
  0S   1pz        0.014924 -0.018156  0.000001 -0.255482 -0.053349  0.000000
  0S   1px       -0.000000  0.000000  0.253672  0.000001  0.000000 -0.000011
  0S   1py        0.206399  0.005824 -0.000000  0.049118 -0.294488  0.000000
  0S   3s        -0.027091  1.640397  0.000000 -0.154557  0.080986 -0.000000
  0S   2pz       -0.052866  0.077905 -0.000002  1.083029  0.227624 -0.000000
  0S   2px        0.000000 -0.000000 -1.075618 -0.000002 -0.000000  0.006316
  0S   2py       -0.682699 -0.029592  0.000000 -0.204317  1.234571 -0.000000
  0S   4s        -0.196623 -2.225356 -0.000000  0.094779 -0.040552 -0.000000
  0S   3pz       -0.096727 -0.457431  0.000003 -1.409965 -0.246797 -0.000000
  0S   3px        0.000000  0.000000  1.367763  0.000003  0.000000 -0.007424
  0S   3py       -1.036577  0.096921 -0.000001  0.290085 -1.466567  0.000000
  1O   1s        -0.062219 -0.019467  0.000000 -0.001008  0.003167 -0.000000
  1O   2s         0.122945  0.026730  0.000000 -0.009725 -0.047150  0.000000
  1O   1pz       -0.288902  0.127713 -0.000000  0.081844  0.127607 -0.000000
  1O   1px       -0.000000  0.000000 -0.067560 -0.000000 -0.000000  0.653276
  1O   1py       -0.181614  0.111872 -0.000000  0.032417  0.272640  0.000000
  1O   3s         0.746447  0.466067 -0.000000  0.125539  0.385984  0.000000
  1O   2pz       -0.336248  0.028907 -0.000000  0.136395  0.055515  0.000000
  1O   2px       -0.000000 -0.000000 -0.116670 -0.000000  0.000000 -0.748579
  1O   2py       -0.282012 -0.085884  0.000000 -0.030347  0.175419 -0.000000
  2O   1s         0.043933 -0.024667  0.000000 -0.003472  0.000366 -0.000000
  2O   2s        -0.085382  0.034796  0.000000 -0.020848  0.030514  0.000000
  2O   1pz        0.300257  0.116797 -0.000000  0.123315 -0.077999 -0.000000
  2O   1px        0.000000 -0.000000 -0.075425 -0.000000 -0.000000 -0.680758
  2O   1py       -0.071130 -0.106912  0.000000 -0.112966  0.196460 -0.000000
  2O   3s        -0.513437  0.542959 -0.000001  0.315335 -0.322649  0.000000
  2O   2pz        0.328971 -0.016185 -0.000000  0.117412  0.027213  0.000000
  2O   2px        0.000000 -0.000000 -0.117108 -0.000000  0.000000  0.784118
  2O   2py       -0.142545  0.114717 -0.000000  0.007805  0.118123  0.000000
                     24        25        26        27        28        29   
                   0.57162   0.64058   0.65097   0.65494   0.73066   1.07411
                   0.00000   0.00000   0.00000   0.00000   0.00000   0.00000
                  --------  --------  --------  --------  --------  --------
  0S   1s         0.006816 -0.004016  0.017180  0.000000  0.000586 -0.001055
  0S   2s        -0.000364 -0.012405  0.028178 -0.000000 -0.004833  0.014453
  0S   1pz       -0.022786  0.004113 -0.028022 -0.000000 -0.002645  0.008851
  0S   1px        0.000000  0.000000 -0.000000 -0.000288 -0.000000 -0.000000
  0S   1py       -0.001848  0.044016  0.012099  0.000000  0.029707 -0.059757
  0S   3s         0.214625 -0.169909  0.644645  0.000000  0.001695  0.013315
  0S   2pz        0.164988 -0.054523  0.287863  0.000000  0.009908 -0.049978
  0S   2px        0.000000 -0.000000  0.000000  0.003027  0.000000  0.000000
  0S   2py        0.019625 -0.393090 -0.068563 -0.000000 -0.320288  0.573791
  0S   4s         0.282351 -0.024878  0.050916  0.000000 -0.011975 -0.135070
  0S   3pz        0.454113  0.061265 -0.246254  0.000000 -0.029475 -0.101625
  0S   3px       -0.000000 -0.000000 -0.000000  0.565483 -0.000000 -0.000000
  0S   3py        0.010298 -0.051673 -0.012232 -0.000000  0.460018  0.922808
  1O   1s         0.029463 -0.043569  0.013431 -0.000000 -0.002941 -0.040334
  1O   2s        -0.187900  0.355547 -0.027334  0.000000 -0.013846  1.047336
  1O   1pz        0.388818  0.649258 -0.397281  0.000000 -0.325651 -0.218675
  1O   1px        0.000000 -0.000000 -0.000000  0.674803 -0.000000 -0.000000
  1O   1py       -0.514340  0.311480 -0.285690  0.000000  0.578888 -0.110580
  1O   3s        -0.095721 -0.147566 -0.065724 -0.000000 -0.054484 -1.645993
  1O   2pz       -0.408241 -0.907964  0.581100 -0.000000  0.379854  0.600434
  1O   2px       -0.000000  0.000000  0.000000 -0.930774  0.000000  0.000000
  1O   2py        0.770148 -0.575548  0.505233 -0.000000 -0.843372  0.399596
  2O   1s         0.028433  0.034685  0.030889  0.000000  0.003541  0.049629
  2O   2s        -0.194000 -0.337517 -0.215673 -0.000000 -0.006991 -1.271617
  2O   1pz        0.375219 -0.409581 -0.669620 -0.000000  0.268047  0.240711
  2O   1px       -0.000000 -0.000000 -0.000000  0.643367  0.000000  0.000000
  2O   1py        0.523691  0.154010  0.332855  0.000000  0.620036 -0.155346
  2O   3s        -0.064280  0.208422  0.084813  0.000000  0.095500  1.977904
  2O   2pz       -0.385629  0.554771  0.937520  0.000000 -0.306685 -0.645114
  2O   2px        0.000001  0.000000  0.000000 -0.887781 -0.000000  0.000000
  2O   2py       -0.752174 -0.280515 -0.583084 -0.000000 -0.868346  0.518405
                     30   
                   1.13973
                   0.00000
                  --------
  0S   1s         0.011069
  0S   2s        -0.042134
  0S   1pz       -0.044830
  0S   1px       -0.000000
  0S   1py       -0.004097
  0S   3s         0.264704
  0S   2pz        0.385072
  0S   2px        0.000000
  0S   2py        0.085187
  0S   4s         1.680857
  0S   3pz        0.831568
  0S   3px        0.000000
  0S   3py        0.126774
  1O   1s        -0.042909
  1O   2s         1.368697
  1O   1pz       -0.026923
  1O   1px       -0.000000
  1O   1py       -0.193622
  1O   3s        -2.350199
  1O   2pz        0.198229
  1O   2px       -0.000000
  1O   2py        0.848810
  2O   1s        -0.035475
  2O   2s         1.116853
  2O   1pz       -0.006735
  2O   1px        0.000000
  2O   1py        0.183058
  2O   3s        -1.897493
  2O   2pz        0.129616
  2O   2px       -0.000000
  2O   2py       -0.735067



                    ********************************
                    * MULLIKEN POPULATION ANALYSIS *
                    ********************************

--------------------------------------------
MULLIKEN ATOMIC CHARGES AND SPIN POPULATIONS
--------------------------------------------
   0 S :    1.191824    0.680730
   1 O :   -0.108169    1.114685
   2 O :   -0.083655    1.204585
Sum of atomic charges         :    1.0000000
Sum of atomic spin populations:    3.0000000

-----------------------------------------------------
MULLIKEN REDUCED ORBITAL CHARGES AND SPIN POPULATIONS
-----------------------------------------------------
CHARGE
  0 S s       :     5.726920  s :     5.726920
      pz      :     3.005728  p :     9.081256
      px      :     3.422969
      py      :     2.652559
  1 O s       :     4.039757  s :     4.039757
      pz      :     1.131313  p :     4.068412
      px      :     1.766570
      py      :     1.170528
  2 O s       :     4.043306  s :     4.043306
      pz      :     1.103172  p :     4.040349
      px      :     1.810461
      py      :     1.126716

SPIN
  0 S s       :     0.158785  s :     0.158785
      pz      :    -0.026639  p :     0.521945
      px      :     0.583576
      py      :    -0.034992
  1 O s       :    -0.009002  s :    -0.009002
      pz      :     0.669765  p :     1.123687
      px      :     0.229625
      py      :     0.224297
  2 O s       :    -0.011562  s :    -0.011562
      pz      :     0.695668  p :     1.216146
      px      :     0.186798
      py      :     0.333680


                     *******************************
                     * LOEWDIN POPULATION ANALYSIS *
                     *******************************

-------------------------------------------
LOEWDIN ATOMIC CHARGES AND SPIN POPULATIONS
-------------------------------------------
   0 S :    1.110827    0.654626
   1 O :   -0.071443    1.129865
   2 O :   -0.039383    1.215508

----------------------------------------------------
LOEWDIN REDUCED ORBITAL CHARGES AND SPIN POPULATIONS
----------------------------------------------------
CHARGE
  0 S s       :     5.587048  s :     5.587048
      pz      :     3.097380  p :     9.302126
      px      :     3.414457
      py      :     2.790289
  1 O s       :     3.826414  s :     3.826414
      pz      :     1.176404  p :     4.245029
      px      :     1.771541
      py      :     1.297084
  2 O s       :     3.845758  s :     3.845758
      pz      :     1.149046  p :     4.193625
      px      :     1.814002
      py      :     1.230578

SPIN
  0 S s       :     0.120901  s :     0.120901
      pz      :    -0.000810  p :     0.533725
      px      :     0.566483
      py      :    -0.031948
  1 O s       :     0.005032  s :     0.005032
      pz      :     0.665122  p :     1.124833
      px      :     0.238787
      py      :     0.220924
  2 O s       :     0.002743  s :     0.002743
      pz      :     0.690833  p :     1.212766
      px      :     0.194730
      py      :     0.327203


                      *****************************
                      * MAYER POPULATION ANALYSIS *
                      *****************************

  NA   - Mulliken gross atomic population
  ZA   - Total nuclear charge
  QA   - Mulliken gross atomic charge
  VA   - Mayer's total valence
  BVA  - Mayer's bonded valence
  FA   - Mayer's free valence

  ATOM       NA         ZA         QA         VA         BVA        FA
  0 S     14.8082    16.0000     1.1918     2.7229     2.3204     0.4025
  1 O      8.1082     8.0000    -0.1082     2.1760     1.5083     0.6676
  2 O      8.0837     8.0000    -0.0837     2.1430     1.3610     0.7819

  Mayer bond orders larger than 0.100000
B(  0-S ,  1-O ) :   1.2338 B(  0-S ,  2-O ) :   1.0865 B(  1-O ,  2-O ) :   0.2745 


-------
TIMINGS
-------

Total SCF time: 0 days 0 hours 0 min 3 sec 

Total time                  ....       3.767 sec
Sum of individual times     ....       3.640 sec  ( 96.6%)

Fock matrix formation       ....       3.066 sec  ( 81.4%)
  Split-RI-J                ....       0.359 sec  ( 11.7% of F)
  Chain of spheres X        ....       1.803 sec  ( 58.8% of F)
  XC integration            ....       0.853 sec  ( 27.8% of F)
    Basis function eval.    ....       0.257 sec  ( 30.1% of XC)
    Density eval.           ....       0.165 sec  ( 19.3% of XC)
    XC-Functional eval.     ....       0.241 sec  ( 28.3% of XC)
    XC-Potential eval.      ....       0.102 sec  ( 11.9% of XC)
Diagonalization             ....       0.020 sec  (  0.5%)
Density matrix formation    ....       0.001 sec  (  0.0%)
Population analysis         ....       0.003 sec  (  0.1%)
Initial guess               ....       0.026 sec  (  0.7%)
Orbital Transformation      ....       0.000 sec  (  0.0%)
Orbital Orthonormalization  ....       0.000 sec  (  0.0%)
DIIS solution               ....       0.023 sec  (  0.6%)
Grid generation             ....       0.502 sec  ( 13.3%)

Maximum memory used throughout the entire SCF-calculation: 43.8 MB


           ************************************************************
           *        Program running with 2 parallel MPI-processes     *
           *              working on a common directory               *
           ************************************************************
------------------------------------------------------------------------------
                        ORCA TD-DFT/TDA CALCULATION
------------------------------------------------------------------------------

Input orbitals are from        ... ORCA.gbw
CI-vector output               ... ORCA.cis
Tamm-Dancoff approximation     ... operative
CIS-Integral strategy          ... AO-integrals
Integral handling              ... AO integral Direct
Max. core memory used          ... 1000 MB
Reference state                ... UHF
Follow IRoot                   ... off
Number of operators            ... 2
Orbital ranges used for CIS calculation:
 Operator 0:  Orbitals   7... 16  to  17... 30
 Operator 1:  Orbitals   7... 13  to  14... 30
XAS localization array:
 Operator 0:  Orbitals  -1... -1
 Operator 1:  Orbitals  -1... -1

-------------------
XC-INTEGRATION GRID
-------------------

General Integration Accuracy     IntAcc      ... 3.467
Radial Grid Type                 RadialGrid  ... OptM3 with GC (2021)
Angular Grid (max. ang.)         AngularGrid ... 1 (Lebedev-50)
Angular grid pruning method      GridPruning ... 4 (adaptive)
Weight generation scheme         WeightScheme... Becke
Basis function cutoff            BFCut       ... 1.0000e-11
Integration weight cutoff        WCut        ... 1.0000e-14
Angular grids for H and He will be reduced by one unit
Partially contracted basis set               ... off
Rotationally invariant grid construction     ... off

Total number of grid points                  ...     3014
Total number of batches                      ...       49
Average number of points per batch           ...       61
Average number of grid points per atom       ...     1005

---------------------
COSX-INTEGRATION GRID
---------------------

General Integration Accuracy     IntAcc      ... 3.067
Radial Grid Type                 RadialGrid  ... OptM3 with GC (2021)
Angular Grid (max. ang.)         AngularGrid ... 1 (Lebedev-50)
Angular grid pruning method      GridPruning ... 4 (adaptive)
Weight generation scheme         WeightScheme... Becke
Basis function cutoff            BFCut       ... 1.0000e-11
Integration weight cutoff        WCut        ... 1.0000e-14
Angular grids for H and He will be reduced by one unit
Partially contracted basis set               ... on
Rotationally invariant grid construction     ... off

Total number of grid points                  ...     1376
Total number of batches                      ...       23
Average number of points per batch           ...       59
Average number of grid points per atom       ...      459

---------------
TD-DFT XC SETUP
---------------

DFT calculation                         ... on
Name of the grid file                   ... ORCA.grid_cis.tmp
Exchange functional (TD-DFT)            ... B88
   X-Alpha parameter    XAlpha (TD-DFT) ...  0.666667
   Becke's b parameter  XBeta (TD-DFT)  ...  0.004200
Correlation functional (TD-DFT)         ... LYP
 LDA part of GGA corr.  LDAOpt (TD-DFT) ... VWN-5
Hybrid DFT                              ... on
   Exchange mixing (TD-DFT)             ...  0.200
   GGA exch. scaling (TD-DFT)           ...  0.720
   GGA corr. scaling (TD-DFT)           ...  0.810

Building densities             ... done
Calculating rho(r) on the grid ... done
Building xc-kernel on the grid ... done
                    *** TD-DFT CALCULATION INITIALIZED ***

------------------------
DAVIDSON-DIAGONALIZATION
------------------------

Dimension of the eigenvalue problem            ...    259
Number of roots to be determined               ...      1
Maximum size of the expansion space            ...     10
Maximum number of iterations                   ...    100
Convergence tolerance for the residual         ...    2.500e-07
Convergence tolerance for the energies         ...    2.500e-07
Orthogonality tolerance                        ...    1.000e-14
Level Shift                                    ...    0.000e+00
Constructing the preconditioner                ... o.k.
Building the initial guess                     ... o.k.
Number of trial vectors determined             ...     10


                       ****Iteration    0****

   Memory handling for direct AO based CIS:
   Memory per vector needed      ...     1 MB
   Memory needed                 ...     0 MB
   Memory available              ...  1000 MB
   Number of vectors per batch   ...  1000
   Number of batches             ...     1
   Time for densities:            0.000
   Time for RI-J (Direct):        0.016
   Time for K (COSX):             0.043
   Time for XC-Integration:       0.012
   Time for Sigma-Completion:     0.000
   Size of expansion space: 3
   Lowest Energy          :     0.013782040749
   Maximum Energy change  :     0.013782040749 (vector 0)
   Maximum residual norm  :     0.001902386072

                       ****Iteration    1****
   Time for densities:            0.000
   Time for RI-J (Direct):        0.011
   Time for K (COSX):             0.040
   Time for XC-Integration:       0.006
   Time for Sigma-Completion:     0.000
   Size of expansion space: 4
   Lowest Energy          :     0.007947473428
   Maximum Energy change  :     0.005834567321 (vector 0)
   Maximum residual norm  :     0.000035883939

                       ****Iteration    2****
   Time for densities:            0.000
   Time for RI-J (Direct):        0.012
   Time for K (COSX):             0.039
   Time for XC-Integration:       0.006
   Time for Sigma-Completion:     0.000
   Size of expansion space: 5
   Lowest Energy          :     0.007873641712
   Maximum Energy change  :     0.000073831716 (vector 0)
   Maximum residual norm  :     0.000000429539

                       ****Iteration    3****
   Time for densities:            0.000
   Time for RI-J (Direct):        0.012
   Time for K (COSX):             0.041
   Time for XC-Integration:       0.006
   Time for Sigma-Completion:     0.000
   Size of expansion space: 6
   Lowest Energy          :     0.007872921496
   Maximum Energy change  :     0.000000720216 (vector 0)
   Maximum residual norm  :     0.000000008352

      *** CONVERGENCE OF RESIDUAL NORM REACHED ***

Storing the converged CI vectors               ... ORCA.cis4

                 *** DAVIDSON DONE ***

Total time for solving the CIS problem:     0.245sec

-------------------------
TD-DFT/TDA EXCITED STATES
-------------------------

the weight of the individual excitations are printed if larger than 1.0e-02

STATE  1:  E=   0.007873 au      0.214 eV     1727.9 cm**-1 <S**2> =   3.774704
    11b ->  15b  :     0.022435 (c=  0.14978370)
    13b ->  14b  :     0.950774 (c=  0.97507661)
    13b ->  15b  :     0.020543 (c= -0.14332833)


-----------------------------
TD-DFT/TDA-EXCITATION SPECTRA
-----------------------------

Center of mass = (  0.0000,  0.0000,  0.7552)
Calculating the Dipole integrals                  ... done
Transforming integrals                            ... done
Calculating the Linear Momentum integrals         ... done
Transforming integrals                            ... done
Calculating angular momentum integrals            ... done
Transforming integrals                            ... done

-----------------------------------------------------------------------------
         ABSORPTION SPECTRUM VIA TRANSITION ELECTRIC DIPOLE MOMENTS
-----------------------------------------------------------------------------
State   Energy    Wavelength  fosc         T2        TX        TY        TZ  
        (cm-1)      (nm)                 (au**2)    (au)      (au)      (au) 
-----------------------------------------------------------------------------
   1    1727.9   5787.4   0.000003367   0.00064   0.02533  -0.00000  -0.00000

-----------------------------------------------------------------------------
         ABSORPTION SPECTRUM VIA TRANSITION VELOCITY DIPOLE MOMENTS
-----------------------------------------------------------------------------
State   Energy    Wavelength   fosc        P2         PX        PY        PZ  
        (cm-1)      (nm)                 (au**2)     (au)      (au)      (au) 
-----------------------------------------------------------------------------
   1    1727.9   5787.4   0.004108591   0.00005   0.00697   0.00000   0.00000

-------------------------------------------------------------------
                             CD SPECTRUM
-------------------------------------------------------------------
State  Energy     Wavelength     R         MX        MY        MZ   
       (cm-1)       (nm)     (1e40*cgs)   (au)      (au)      (au)  
-------------------------------------------------------------------
   1    1727.9   5787.4      0.00000   0.00000   0.37078  -0.06585

-------------------------------------------------------------------
         CD SPECTRUM VIA TRANSITION VELOCITY DIPOLE MOMENTS        
-------------------------------------------------------------------
State  Energy     Wavelength     R         MX        MY        MZ   
       (cm-1)       (nm)     (1e40*cgs)   (au)      (au)      (au)  
-------------------------------------------------------------------
   1    1727.9   5787.4     -0.00158   0.00000   0.37078  -0.06585

Total run time:        0.544 sec

           *** ORCA-CIS/TD-DFT FINISHED WITHOUT ERROR ***

Maximum memory used throughout the entire CIS-calculation: 42.9 MB

-----------------------
CIS/TD-DFT TOTAL ENERGY
-----------------------

    E(SCF)  =   -549.647268171 Eh
    DE(CIS) =      0.007872921 Eh (Root  1)
    ----------------------------- ---------
    E(tot)  =   -549.639395250 Eh



-------------------------------------------------------------------------------
                          DFT DISPERSION CORRECTION                            
                                                                               
                              DFTD3 V3.1  Rev 1                                
                          USING Becke-Johnson damping                          
-------------------------------------------------------------------------------
The B3LYP functional is recognized
Active option DFTDOPT                   ...         4   

molecular C6(AA) [au] = 331.243651 


            DFT-D V3
 parameters
 s6 scaling factor         :     1.0000 
 a1 scaling factor         :     0.3981 
 s8 scaling factor         :     1.9889 
 a2 scaling factor         :     4.4211 
 ad hoc parameters k1-k3   :    16.0000     1.3333    -4.0000 

 Edisp/kcal,au: -1.579007628924  -0.002516308559 
 E6   /kcal   :  -0.666166783 
 E8   /kcal   :  -0.912840846 
 % E8         :  57.811047193 

-------------------------   ----------------
Dispersion correction           -0.002516309
-------------------------   ----------------


-------------------------   --------------------
FINAL SINGLE POINT ENERGY      -549.641911558189
-------------------------   --------------------



           ************************************************************
           *        Program running with 2 parallel MPI-processes     *
           *              working on a common directory               *
           ************************************************************
------------------------------------------------------------------------------
                         ORCA SCF GRADIENT CALCULATION
------------------------------------------------------------------------------


                            ------------------
                              SINGLET ROOT 1
                            ------------------

------------------------
TD-DFT GRADIENT XC SETUP
------------------------

Building densities                     ... done
Calculating rho(r) on the grid         ... done
Building xc-kernel on the grid         ... done
Building xc 3rd derivative on the grid      ... done
                *** TD-DFT GRADIENT CALCULATION INITIALIZED ***

-------------------
TD-DFT/TDA GRADIENT
-------------------

Reference wavefunction             ... UHF
State of interest                  ... 1
Basis dimension                    ... 31
DFT-XC contribution needed         ... YES
RI-approximation                   ... ON
CIS-vectors being read from        ... ORCA.cis

 => Number of Vectors found: 1
 => Orbital Window: 7...16 -> 17...30
                    7...13 -> 14...30

Reading the CIS file                     ... done
Norm of the CI vector                    ... 1.000000000
Making the CIS (pseudo)densities         ... done
Making operators G(D) and Q(T)           ... done
Transforming the Fock operators          ... done
Making the frozen-core relaxed density   ... done
Constructing the G(H) operator           ... done
Transforming the G(H) operator           ... done
Calculating the CIS Lagrangian           ... done
Solving the Z-vector equations           ... done
Finalizing the relaxed density           ... done
Storing the relaxed density              ... done
Constructing the G(Z) operator           ... done
Transforming the G(Z) operator           ... done
Making the W-matrix                      ... done
Finalizing the W-matrix                  ... done
Transforming the W-matrix                ... done
Nuclear repulsion gradient               ... done
One-Electron gradient                    ... done
Dispersion correction                    ... done
Prescreening matrices                    ... done
COSX-gradient                            ... done
Coulomb gradient (RI)                    ... done
Exchange-Correlation gradient            ... done

                 ---------------------------
                 EXCITED STATE GRADIENT DONE
                 ---------------------------

------------------
CARTESIAN GRADIENT
------------------

   1   S   :   -0.000000004    0.032772186    0.175241880
   2   O   :    0.000000006   -0.163939594   -0.092245082
   3   O   :   -0.000000001    0.130806648   -0.083344436

Difference to translation invariance:
           :   -0.0000000002   -0.0003607597   -0.0003476373

Difference to rotation invariance:
           :    0.0003745529    0.0000000055   -0.0000000174

Norm of the cartesian gradient     ...    0.3020360125
RMS gradient                       ...    0.1006786708
MAX gradient                       ...    0.1752418805

------------------------------------------------------------------------------
                  RELAXED CIS/TDA DENSITY POPULATION ANALYSIS
                                   IROOT 1
------------------------------------------------------------------------------
------------------------------------------------------------------------------
                           ORCA POPULATION ANALYSIS
------------------------------------------------------------------------------
Input electron density              ... ORCA.cisp
Input spin density                  ... ORCA.cisr
BaseName (.gbw .S,...)              ... ORCA

                    ********************************
                    * MULLIKEN POPULATION ANALYSIS *
                    ********************************

------------------------------------------
MULLIKEN ATOMIC CHARGES AND SPIN DENSITIES
------------------------------------------
   0 S :    1.137011    0.652923
   1 O :   -0.083247    1.123276
   2 O :   -0.053764    1.223801
Sum of atomic charges       :    1.0000000
Sum of atomic spin densities:    3.0000000

---------------------------------------------------
MULLIKEN REDUCED ORBITAL CHARGES AND SPIN DENSITIES
---------------------------------------------------
CHARGE
  0 S s       :     5.717478  s :     5.717478
      pz      :     2.938194  p :     9.145510
      px      :     3.509881
      py      :     2.697435
  1 O s       :     4.031513  s :     4.031513
      pz      :     1.379360  p :     4.051734
      px      :     1.287761
      py      :     1.384613
  2 O s       :     4.036207  s :     4.036207
      pz      :     1.380338  p :     4.017557
      px      :     1.202714
      py      :     1.434506

SPIN
  0 S s       :     0.169999  s :     0.169999
      pz      :     0.066652  p :     0.482923
      px      :     0.495110
      py      :    -0.078839
  1 O s       :    -0.003830  s :    -0.003830
      pz      :     0.420506  p :     1.127106
      px      :     0.707232
      py      :    -0.000633
  2 O s       :    -0.006517  s :    -0.006517
      pz      :     0.426514  p :     1.230319
      px      :     0.793668
      py      :     0.010137


                     *******************************
                     * LOEWDIN POPULATION ANALYSIS *
                     *******************************

-----------------------------------------
LOEWDIN ATOMIC CHARGES AND SPIN DENSITIES
-----------------------------------------
   0 S :    1.077698    0.635598
   1 O :   -0.057841    1.133743
   2 O :   -0.019856    1.230659

--------------------------------------------------
LOEWDIN REDUCED ORBITAL CHARGES AND SPIN DENSITIES
--------------------------------------------------
CHARGE
  0 S s       :     5.575236  s :     5.575236
      pz      :     3.031913  p :     9.347066
      px      :     3.494955
      py      :     2.820198
  1 O s       :     3.825331  s :     3.825331
      pz      :     1.428323  p :     4.232511
      px      :     1.295816
      py      :     1.508372
  2 O s       :     3.844953  s :     3.844953
      pz      :     1.430396  p :     4.174904
      px      :     1.209585
      py      :     1.534923

SPIN
  0 S s       :     0.134462  s :     0.134462
      pz      :     0.081298  p :     0.501136
      px      :     0.482615
      py      :    -0.062777
  1 O s       :     0.006318  s :     0.006318
      pz      :     0.410793  p :     1.127424
      px      :     0.714245
      py      :     0.002386
  2 O s       :     0.004474  s :     0.004474
      pz      :     0.415594  p :     1.226185
      px      :     0.799150
      py      :     0.011440


                      *****************************
                      * MAYER POPULATION ANALYSIS *
                      *****************************

  NA   - Mulliken gross atomic population
  ZA   - Total nuclear charge
  QA   - Mulliken gross atomic charge
  VA   - Mayer's total valence
  BVA  - Mayer's bonded valence
  FA   - Mayer's free valence

  ATOM       NA         ZA         QA         VA         BVA        FA
  0 S     14.8630    16.0000     1.1370     2.7773     2.4493     0.3280
  1 O      8.0832     8.0000    -0.0832     2.3225     1.6019     0.7206
  2 O      8.0538     8.0000    -0.0538     2.3027     1.4116     0.8911

  Mayer bond orders larger than 0.100000
B(  0-S ,  1-O ) :   1.3198 B(  0-S ,  2-O ) :   1.1295 B(  1-O ,  2-O ) :   0.2821 



                            ------------------
                               GROUND STATE 
                            ------------------

 ... reading COSX grid (gridx3)
Gradient of the Kohn-Sham DFT energy:
Kohn-Sham wavefunction type      ... UKS
Hartree-Fock exchange scaling    ...    0.200
Number of operators              ...    2
Number of atoms                  ...    3
Basis set dimensions             ...   31
Integral neglect threshold       ... 2.5e-11
Integral primitive cutoff        ... 2.5e-12
SHARK Integral package           ... ON

Nuc. rep. gradient       (SHARK) ... done (  0.0 sec)
HCore & Overlap gradient (SHARK) ... done (  0.0 sec)
RI-J gradient            (SHARK) ... done (  0.1 sec)
COSX-gradient                    ... done (  0.3 sec)
Exchange-correlation gradient    ... done
Dispersion correction            ... done

------------------
CARTESIAN GRADIENT
------------------

   1   S   :    0.000000014    0.038256618    0.196058146
   2   O   :   -0.000000098   -0.162120869   -0.104399251
   3   O   :   -0.000000078    0.123490963   -0.091767627

Difference to translation invariance:
           :   -0.0000001627   -0.0003732879   -0.0001087326

Difference to rotation invariance:
           :    0.0003821434   -0.0000002644    0.0000000509

Norm of the cartesian gradient     ...    0.3174209517
RMS gradient                       ...    0.1058069839
MAX gradient                       ...    0.1960581460

-------
TIMINGS
-------

Total SCF gradient time            ...        4.781 sec

One electron gradient       ....       0.004 sec  (  0.1%)
Prescreening matrices       ....       0.023 sec  (  0.5%)
RI-J Coulomb gradient       ....       0.093 sec  (  1.9%)
COSX gradient               ....       0.311 sec  (  6.5%)
XC gradient                 ....       0.160 sec  (  3.3%)

Maximum memory used throughout the entire SCFGRAD-calculation: 105.8 MB

                            ***************************************
                            *     ORCA property calculations      *
                            ***************************************

                                    ---------------------
                                    Active property flags
                                    ---------------------
   (+) Dipole Moment


------------------------------------------------------------------------------
                       ORCA ELECTRIC PROPERTIES CALCULATION
------------------------------------------------------------------------------

Dipole Moment Calculation                       ... on
Quadrupole Moment Calculation                   ... off
Polarizability Calculation                      ... off
GBWName                                         ... ORCA.gbw
Electron density                                ... ORCA.scfp
The origin for moment calculation is the CENTER OF MASS  = ( 0.000000,  0.000000  0.755159)

-------------
DIPOLE MOMENT
-------------
                                X             Y             Z
Electronic contribution:     -0.00000      -0.06354      -0.43159
Nuclear contribution   :      0.00000       0.00000       0.02341
                        -----------------------------------------
Total Dipole Moment    :     -0.00000      -0.06354      -0.40818
                        -----------------------------------------
Magnitude (a.u.)       :      0.41309
Magnitude (Debye)      :      1.05000



--------------------
Rotational spectrum 
--------------------
 
Rotational constants in cm-1:     1.647766     0.311169     0.261741 
Rotational constants in MHz : 49398.787065  9328.599358  7846.790422 

 Dipole components along the rotational axes: 
x,y,z [a.u.] :     0.044133    -0.410730    -0.000000 
x,y,z [Debye]:     0.112176    -1.043992    -0.000000 

 

                        *** CIS RELAXED DENSITY ***

------------------------------------------------------------------------------
                       ORCA ELECTRIC PROPERTIES CALCULATION
------------------------------------------------------------------------------

Dipole Moment Calculation                       ... on
Quadrupole Moment Calculation                   ... off
Polarizability Calculation                      ... off
GBWName                                         ... ORCA.gbw
Electron density                                ... ORCA.cisp
The origin for moment calculation is the CENTER OF MASS  = ( 0.000000,  0.000000  0.755159)

-------------
DIPOLE MOMENT
-------------
                                X             Y             Z
Electronic contribution:      0.00000      -0.07098      -0.35841
Nuclear contribution   :      0.00000       0.00000       0.02341
                        -----------------------------------------
Total Dipole Moment    :      0.00000      -0.07098      -0.33500
                        -----------------------------------------
Magnitude (a.u.)       :      0.34243
Magnitude (Debye)      :      0.87040



--------------------
Rotational spectrum 
--------------------
 
Rotational constants in cm-1:     1.647766     0.311169     0.261741 
Rotational constants in MHz : 49398.787065  9328.599358  7846.790422 

 Dipole components along the rotational axes: 
x,y,z [a.u.] :     0.055030    -0.337983     0.000000 
x,y,z [Debye]:     0.139876    -0.859086     0.000000 

 

Timings for individual modules:

Sum of individual times         ...       11.605 sec (=   0.193 min)
GTO integral calculation        ...        0.657 sec (=   0.011 min)   5.7 %
Relativistic integrals          ...        0.507 sec (=   0.008 min)   4.4 %
SCF iterations                  ...        4.239 sec (=   0.071 min)  36.5 %
CIS module                      ...        0.990 sec (=   0.016 min)   8.5 %
SCF Gradient evaluation         ...        5.212 sec (=   0.087 min)  44.9 %
                             ****ORCA TERMINATED NORMALLY****
TOTAL RUN TIME: 0 days 0 hours 0 minutes 12 seconds 256 msec
