
                                 *****************
                                 * O   R   C   A *
                                 *****************

                                            #,                                       
                                            ###                                      
                                            ####                                     
                                            #####                                    
                                            ######                                   
                                           ########,                                 
                                     ,,################,,,,,                         
                               ,,#################################,,                 
                          ,,##########################################,,             
                       ,#########################################, ''#####,          
                    ,#############################################,,   '####,        
                  ,##################################################,,,,####,       
                ,###########''''           ''''###############################       
              ,#####''   ,,,,##########,,,,          '''####'''          '####       
            ,##' ,,,,###########################,,,                        '##       
           ' ,,###''''                  '''############,,,                           
         ,,##''                                '''############,,,,        ,,,,,,###''
      ,#''                                            '''#######################'''  
     '                                                          ''''####''''         
             ,#######,   #######,   ,#######,      ##                                
            ,#'     '#,  ##    ##  ,#'     '#,    #''#        ,####,   ,####,        
            ##       ##  ##   ,#'  ##            #'  '#       #'       #'  '#        
            ##       ##  #######   ##           ,######,      #####,   #    #        
            '#,     ,#'  ##    ##  '#,     ,#' ,#      #,     #,   #   #,  ,#        
             '#######'   ##     ##  '#######'  #'      '#     '####' # '####'        



                #########################################################
                #                        -***-                          #
                #          Department of theory and spectroscopy        #
                #                                                       #
                #                      Frank Neese                      #
                #                                                       #
                #     Directorship, Architecture, Infrastructure        #
                #                    SHARK, DRIVERS                     #
                #        Core code/Algorithms in most modules           #
                #                                                       #
                #        Max Planck Institute fuer Kohlenforschung      #
                #                Kaiser Wilhelm Platz 1                 #
                #                 D-45470 Muelheim/Ruhr                 #
                #                      Germany                          #
                #                                                       #
                #                  All rights reserved                  #
                #                        -***-                          #
                #########################################################


                         Program Version 6.0.0  -   RELEASE  -


 With contributions from (in alphabetic order):
   Daniel Aravena         : Magnetic Suceptibility
   Michael Atanasov       : Ab Initio Ligand Field Theory (pilot matlab implementation)
   Alexander A. Auer      : GIAO ZORA, VPT2 properties, NMR spectrum
   Ute Becker             : All parallelization in ORCA, NUMFREQ, NUMCALC
   Giovanni Bistoni       : ED, misc. LED, open-shell LED, HFLD
   Martin Brehm           : Molecular dynamics
   Dmytro Bykov           : pre 5.0 version of the SCF Hessian
   Marcos Casanova-Páez   : Triplet and SCS-CIS(D). UHF-(DLPNO)-IP/EA/STEOM-CCSD. UHF-CVS-IP/STEOM-CCSD
   Vijay G. Chilkuri      : MRCI spin determinant printing, contributions to CSF-ICE
   Pauline Colinet        : FMM embedding
   Dipayan Datta          : RHF DLPNO-CCSD density
   Achintya Kumar Dutta   : EOM-CC, STEOM-CC
   Nicolas Foglia         : Exact transition moments, OPA infrastructure, MCD improvements
   Dmitry Ganyushin       : Spin-Orbit,Spin-Spin,Magnetic field MRCI
   Miquel Garcia          : C-PCM and meta-GGA Hessian, CCSD/C-PCM, Gaussian charge scheme
   Tiago L. C. Gouveia    : GS-ROHF, GS-ROCIS
   Yang Guo               : DLPNO-NEVPT2, F12-NEVPT2, CIM, IAO-localization
   Andreas Hansen         : Spin unrestricted coupled pair/coupled cluster methods
   Ingolf Harden          : AUTO-CI MPn and infrastructure 
   Benjamin Helmich-Paris : MC-RPA, TRAH-(SCF,CASSCF), AVAS, COSX integrals, SCF dyn. polar.
   Lee Huntington         : MR-EOM, pCC
   Robert Izsak           : Overlap fitted RIJCOSX, COSX-SCS-MP3, EOM
   Riya Kayal             : Wick's Theorem for AUTO-CI, AUTO-CI UHF-CCSDT
   Emily Kempfer          : AUTO-CI, RHF CISDT and CCSDT
   Christian Kollmar      : KDIIS, OOCD, Brueckner-CCSD(T), CCSD density, CASPT2, CASPT2-K, improved NEVPT2
   Axel Koslowski         : Symmetry handling
   Simone Kossmann        : Meta GGA functionals, TD-DFT gradient, OOMP2, (MP2 Hessian; deprecated post 5.0)
   Lucas Lang             : DCDCAS
   Marvin Lechner         : AUTO-CI (C++ implementation), FIC-MRCC
   Spencer Leger          : CASSCF response
   Dagmar Lenk            : GEPOL surface, SMD, ORCA-2-JSON
   Dimitrios Liakos       : Extrapolation schemes; Compound Job, initial MDCI parallelization
   Dimitrios Manganas     : Further ROCIS development; embedding schemes. LFT, Crystal Embedding
   Dimitrios Pantazis     : SARC Basis sets
   Anastasios Papadopoulos: AUTO-CI, single reference methods and gradients
   Taras Petrenko         : pre 6.0 DFT Hessian and TD-DFT gradient, (ASA, deprecated), ECA, 1-Electron XAS/XES, NRVS
   Peter Pinski           : DLPNO-MP2, DLPNO-MP2 Gradient
   Christoph Reimann      : Effective Core Potentials
   Marius Retegan         : Local ZFS, SOC
   Christoph Riplinger    : Optimizer, TS searches, QM/MM, DLPNO-CCSD(T), (RO)-DLPNO pert. Triples
   Michael Roemelt        : Original ROCIS implementation
   Masaaki Saitow         : Open-shell DLPNO-CCSD energy and density
   Barbara Sandhoefer     : DKH picture change effects
   Kantharuban Sivalingam : CASSCF convergence/infrastructure, NEVPT2 and variants, FIC-MRCI
   Bernardo de Souza      : ESD, SOC TD-DFT
   Georgi Stoychev        : AutoAux, RI-MP2 NMR, DLPNO-MP2 response, X2C
   Van Anh Tran           : RI-MP2 g-tensors
   Willem Van den Heuvel  : Paramagnetic NMR
   Zikuan Wang            : NOTCH, Electric field optimization 
   Frank Wennmohs         : Technical directorship and infrastructure
   Hang Xu                : AUTO-CI-Response properties 


 We gratefully acknowledge several colleagues who have allowed us to
 interface, adapt or use parts of their codes:
   Stefan Grimme, W. Hujo, H. Kruse, P. Pracht,  : VdW corrections, initial TS optimization,
                  C. Bannwarth, S. Ehlert,         DFT functionals, gCP, sTDA/sTD-DF
                  L. Wittmann, M. Mueller
   Ed Valeev, F. Pavosevic, A. Kumar             : LibInt (2-el integral package), F12 methods
   Garnet Chan, S. Sharma, J. Yang, R. Olivares  : DMRG
   Ulf Ekstrom                                   : XCFun DFT Library
   Mihaly Kallay                                 : mrcc  (arbitrary order and MRCC methods)
   Frank Weinhold                                : gennbo (NPA and NBO analysis)
   Simon Mueller                                 : openCOSMO-RS
   Christopher J. Cramer and Donald G. Truhlar   : smd solvation model
   Lars Goerigk                                  : TD-DFT with DH, B97 family of functionals
   V. Asgeirsson, H. Jonsson                     : NEB implementation
   FAccTs GmbH                                   : IRC, NEB, NEB-TS, DLPNO-Multilevel, CI-OPT
                                                   MM, QMMM, 2- and 3-layer-ONIOM, Crystal-QMMM,
                                                   LR-CPCM, SF, NACMEs, symmetry and pop. for TD-DFT,
                                                   nearIR, NL-DFT gradient (VV10), updates on ESD,
                                                   ML-optimized integration grids, MBIS, APM,
                                                   GOAT, DOCKER, SOLVATOR, interface openCOSMO-RS
   S Lehtola, MJT Oliveira, MAL Marques          : LibXC Library
   Liviu Ungur et al                             : ANISO software


 Your calculation uses the libint2 library for the computation of 2-el integrals
 For citations please refer to: http://libint.valeyev.net

 Your ORCA version has been built with support for libXC version: 6.2.2
 For citations please refer to: https://libxc.gitlab.io

 This ORCA versions uses:
   CBLAS   interface :  Fast vector & matrix operations
   LAPACKE interface :  Fast linear algebra routines
   SCALAPACK package :  Parallel linear algebra routines
   Shared memory     :  Shared parallel matrices
   BLAS/LAPACK       :  OpenBLAS 0.3.27  USE64BITINT DYNAMIC_ARCH NO_AFFINITY Zen SINGLE_THREADED
        Core in use  :  Zen
   Copyright (c) 2011-2014, The OpenBLAS Project


NOTE: MaxCore=1000 MB was set to SCF,MP2,MDCI,CIPSI,MRCI and CIS
      => If you want to overwrite this, your respective input block should be placed after the MaxCore statement
SCAN-COORDS
Your calculation utilizes the atom-pairwise dispersion correction
with the Becke-Johnson damping scheme (D3BJ)


Warning: RI and relativity are on but no J-basis has been assigned. Assigning SARC/J (nothing to worry about!)
================================================================================

----- Orbital basis set information -----
Your calculation utilizes the basis: 6-31G
   H-He, Li-Ne : W. J. Hehre, R. Ditchfield and J.A. Pople, J. Chem. Phys. 56, 2257 (1972).
                 Note: He and Ne are unpublished basis sets taken from the Gaussian program.
                 Note: Li and B from J. D. Dill and J. A. Pople, J. Chem. Phys. 62, 2921 (1975).
   Na - Ar     : M. M. Francl, W. J. Pietro, W. J. Hehre, J. S. Binkley, M. S. Gordon, 
                 D. J. DeFrees and J. A. Pople, J. Chem. Phys. 77, 3654 (1982).
   K - Zn      : V. A. Rassolov, J. A. Pople, M. A. Ratner, and T. L. Windus, J. Chem. Phys. 109, 1223 (1998).

The basis set includes element-specific modifications.

Your calculation utilizes the basis: cc-pVQZ 
       H, B-Ne : Obtained from the ccRepo (grant-hill.group.shef.ac.uk/ccrepo) Feb. 2017
                 T. H. Dunning, Jr., J. Chem. Phys. 90, 1007 (1989)
            He : Obtained from the ccRepo (grant-hill.group.shef.ac.uk/ccrepo) Feb. 2017
                 D. E. Woon, T. H. Dunning, Jr., J. Chem. Phys. 100, 2975 (1994)
  Li-Be, Na-Mg : Obtained from the ccRepo (grant-hill.group.shef.ac.uk/ccrepo) Feb. 2017
                 B. P. Prascher, D. E. Woon, K. A. Peterson, T. H. Dunning, Jr., A. K. Wilson, Theor. Chem. Acc. 128, 69 (2011)
         Al-Ar : Obtained from the ccRepo (grant-hill.group.shef.ac.uk/ccrepo) Feb. 2017
                 D. E. Woon, T. H. Dunning, Jr., J. Chem. Phys. 98, 1358 (1993)
            Ca : Obtained from the Peterson Research Group Website (tyr0.chem.wsu.edu/~kipeters) Feb. 2017
                 J. Koput, K. A. Peterson, J. Phys. Chem. 106, 9595 (2002)
         Sc-Zn : Obtained from the ccRepo (grant-hill.group.shef.ac.uk/ccrepo) Feb. 2017
                 N. B. Balabanov, K. A. Peterson, J. Chem. Phys. 123, 064107 (2005)
                 N. B. Balabanov, K. A. Peterson, J. Chem. Phys. 125, 074110 (2006)
         Ga-Kr : Obtained from the ccRepo (grant-hill.group.shef.ac.uk/ccrepo) Feb. 2017
                 A. K. Wilson, D. E. Woon, K. A. Peterson, T. H. Dunning, Jr., J. Chem. Phys. 110, 7667 (1999)

----- AuxJ basis set information -----
Your calculation utilizes the auxiliary basis: SARC/J 
   decontracted def2/J up to Kr:
   F. Weigend, Phys. Chem. Chem. Phys. 8, 1057 (2006)
   and SARC auxiliary basis sets beyond Kr:
   D. A. Pantazis and F. Neese, J. Chem. Theory Comput. 5, 2229 (2009).
   D. A. Pantazis, X. Y. Chen, C. R. Landis and F. Neese, J. Chem. Theory Comput. 4, 908 (2008).
   D. A. Pantazis and F. Neese, Theor. Chem. Acc. 131, 1292 (2012).
   D. A. Pantazis and F. Neese, J. Chem. Theory Comput. 7, 677 (2011).

================================================================================
                                        WARNINGS
                       Please study these warnings very carefully!
================================================================================


WARNING: In scalar relativistic gradient/hessian runs we need the one-center approximation
  ===> : %rel OneCenter is turned on

WARNING: Relativistic property calculations require picture change transformations!
  ===> : Setting %rel PictureChange = 1

WARNING: Picture change corrections for electric properties are not implemented for ZORA(MP),
         however, the errors are usually negligible.
INFO   : Checking CIS options ...

WARNING: CIS/ROCIS methods need fully converged wavefunctions
  ===> : Setting SCFConvForced true
         You can overwrite this default with %scf ConvForced false 


================================================================================
                                       INPUT FILE
================================================================================
NAME = ORCA.inp
|  1> ! 6-31G b3lyp D3 rijcosx tightscf zora nousesym engrad
|  2> %maxcore 1000
|  3> 
|  4> %basis
|  5> 	newgto F "cc-pvqz" end
|  6> end
|  7> 
|  8> %method
|  9> 	frozencore -14
| 10> end
| 11> 
| 12> %tddft
| 13> 	tda true
| 14> 	triplets true
| 15> 	nroots 5
| 16> 	dosoc true
| 17> 	printlevel 3
| 18> 	sgradlist 0,1,2
| 19> 	tgradlist 1,2,3,4,5
| 20> end
| 21> 
| 22> %output
| 23> 	Print[ P_Overlap ] 1
| 24> 	Print[ P_MOs ] 1
| 25> end
| 26> 
| 27> %scf
| 28> 	maxiter 700
| 29> end
| 30> 
| 31> %coords
| 32> 	Ctyp xyz
| 33> 	units bohrs
| 34> 	charge 0
| 35> 	mult 1
| 36> 	coords
| 37> 	S         0.000000000      0.000000000      0.000000000
| 38> 	O         0.000000000      2.456643962      1.417294593
| 39> 	O         0.000000000     -2.456643962      1.606267206
| 40> 	end
| 41> end
| 42> 
| 43> 
| 44>                          ****END OF INPUT****
================================================================================

                     *******************************
                     * Energy+Gradient Calculation *
                     *******************************

---------------------------------
CARTESIAN COORDINATES (ANGSTROEM)
---------------------------------
  S      0.000000    0.000000    0.000000
  O      0.000000    1.300000    0.750000
  O      0.000000   -1.300000    0.850000

----------------------------
CARTESIAN COORDINATES (A.U.)
----------------------------
  NO LB      ZA    FRAG     MASS         X           Y           Z
   0 S    16.0000    0    32.060    0.000000    0.000000    0.000000
   1 O     8.0000    0    15.999    0.000000    2.456644    1.417295
   2 O     8.0000    0    15.999    0.000000   -2.456644    1.606267

--------------------------------
INTERNAL COORDINATES (ANGSTROEM)
--------------------------------
 S      0   0   0     0.000000000000     0.00000000     0.00000000
 O      1   0   0     1.500833094468     0.00000000     0.00000000
 O      1   2   0     1.553222449074   116.83984898     0.00000000

---------------------------
INTERNAL COORDINATES (A.U.)
---------------------------
 S      0   0   0     0.000000000000     0.00000000     0.00000000
 O      1   0   0     2.836163521269     0.00000000     0.00000000
 O      1   2   0     2.935165053809   116.83984898     0.00000000

---------------------
BASIS SET INFORMATION
---------------------
There are 2 groups of distinct atoms

 Group   1 Type S   : 16s10p contracted to 4s3p pattern {6631/631}
 Group   2 Type O   : 10s4p contracted to 3s2p pattern {631/31}

Atom   0S    basis set group =>   1
Atom   1O    basis set group =>   2
Atom   2O    basis set group =>   2
---------------------------------
AUXILIARY/J BASIS SET INFORMATION
---------------------------------
There are 2 groups of distinct atoms

 Group   1 Type S   : 14s5p5d2f1g contracted to 14s5p5d2f1g pattern {11111111111111/11111/11111/11/1}
 Group   2 Type O   : 12s5p4d2f1g contracted to 12s5p4d2f1g pattern {111111111111/11111/1111/11/1}

Atom   0S    basis set group =>   1
Atom   1O    basis set group =>   2
Atom   2O    basis set group =>   2
------------------------------------------------------------------------------
                             ORCA STARTUP CALCULATIONS
                           -- RI-GTO INTEGRALS CHOSEN --
------------------------------------------------------------------------------
------------------------------------------------------------------------------
                   ___                                                        
                  /   \      - P O W E R E D   B Y -                         
                 /     \                                                     
                 |  |  |   _    _      __       _____    __    __             
                 |  |  |  | |  | |    /  \     |  _  \  |  |  /  |          
                  \  \/   | |  | |   /    \    | | | |  |  | /  /          
                 / \  \   | |__| |  /  /\  \   | |_| |  |  |/  /          
                |  |  |   |  __  | /  /__\  \  |    /   |      \           
                |  |  |   | |  | | |   __   |  |    \   |  |\   \          
                \     /   | |  | | |  |  |  |  | |\  \  |  | \   \       
                 \___/    |_|  |_| |__|  |__|  |_| \__\ |__|  \__/        
                                                                              
                      - O R C A' S   B I G   F R I E N D -                    
                                      &                                       
                       - I N T E G R A L  F E E D E R -                       
                                                                              
 v1 FN, 2020, v2 2021, v3 2022-2024                                           
------------------------------------------------------------------------------


----------------------
SHARK INTEGRAL PACKAGE
----------------------

Number of atoms                             ...      3
Number of basis functions                   ...     31
Number of shells                            ...     17
Maximum angular momentum                    ...      1
Integral batch strategy                     ... SHARK/LIBINT Hybrid
RI-J (if used) integral strategy            ... SPLIT-RIJ (Revised 2003 algorithm where possible)
Printlevel                                  ...      1
Contraction scheme used                     ... SEGMENTED contraction
Prescreening option                         ... SCHWARTZ
   Thresh                                   ... 2.500e-11
   Tcut                                     ... 2.500e-12
   Tpresel                                  ... 2.500e-12 
Coulomb Range Separation                    ... NOT USED
Exchange Range Separation                   ... NOT USED
Multipole approximations                    ... NOT USED
Finite Nucleus Model                        ... NOT USED
CABS basis                                  ... NOT available
Auxiliary Coulomb fitting basis             ... AVAILABLE
   # of basis functions in Aux-J            ...    217
   # of shells in Aux-J                     ...     75
   Maximum angular momentum in Aux-J        ...      4
Auxiliary J/K fitting basis                 ... NOT available
Auxiliary Correlation fitting basis         ... NOT available
Auxiliary 'external' fitting basis          ... NOT available

Checking pre-screening integrals            ... done (  0.0 sec) Dimension = 17
Check shell pair data                       ... done (  0.0 sec)
Shell pair information
Shell pair cut-off parameter TPreSel        ...   2.5e-12
Total number of shell pairs                 ...       153
Shell pairs after pre-screening             ...       150
Total number of primitive shell pairs       ...      1578
Primitive shell pairs kept                  ...      1221
          la=0 lb=0:     52 shell pairs
          la=1 lb=0:     70 shell pairs
          la=1 lb=1:     28 shell pairs

Calculating one electron integrals          ... done (  0.0 sec)
Calculating RI/J V-Matrix + Cholesky decomp.... done (  0.0 sec)
Calculating Nuclear repulsion               ... done (  0.0 sec) ENN=    101.756797918274 Eh

Diagonalization of the overlap matrix:
Smallest eigenvalue                        ... 4.470e-02
Time for diagonalization                   ...    0.000 sec
Threshold for overlap eigenvalues          ... 1.000e-07
Number of eigenvalues below threshold      ... 0
Time for construction of square roots      ...    0.000 sec
Total time needed                          ...    0.001 sec

-------------------
DFT GRID GENERATION
-------------------

General Integration Accuracy     IntAcc      ... 4.388
Radial Grid Type                 RadialGrid  ... OptM3 with GC (2021)
Angular Grid (max. ang.)         AngularGrid ... 4 (Lebedev-302)
Angular grid pruning method      GridPruning ... 4 (adaptive)
Weight generation scheme         WeightScheme... mBecke (2022)
Basis function cutoff            BFCut       ... 1.0000e-11
Integration weight cutoff        WCut        ... 1.0000e-14
Partially contracted basis set               ... off
Rotationally invariant grid construction     ... off
Angular grids for H and He will be reduced by one unit

Total number of grid points                  ...    19619
Total number of batches                      ...      309
Average number of points per batch           ...       63
Average number of grid points per atom       ...     6540

--------------------
COSX GRID GENERATION
--------------------

GRIDX 1
-------
General Integration Accuracy     IntAcc      ... 3.816
Radial Grid Type                 RadialGrid  ... OptM3 with GC (2021)
Angular Grid (max. ang.)         AngularGrid ... 1 (Lebedev-50)
Angular grid pruning method      GridPruning ... 4 (adaptive)
Weight generation scheme         WeightScheme... mBecke (2022)
Basis function cutoff            BFCut       ... 1.0000e-11
Integration weight cutoff        WCut        ... 1.0000e-14
Partially contracted basis set               ... on
Rotationally invariant grid construction     ... off
Angular grids for H and He will be reduced by one unit

Total number of grid points                  ...     3513
Total number of batches                      ...       29
Average number of points per batch           ...      121
Average number of grid points per atom       ...     1171
UseSFitting                                  ... on

GRIDX 2
-------
General Integration Accuracy     IntAcc      ... 4.020
Radial Grid Type                 RadialGrid  ... OptM3 with GC (2021)
Angular Grid (max. ang.)         AngularGrid ... 2 (Lebedev-110)
Angular grid pruning method      GridPruning ... 4 (adaptive)
Weight generation scheme         WeightScheme... mBecke (2022)
Basis function cutoff            BFCut       ... 1.0000e-11
Integration weight cutoff        WCut        ... 1.0000e-14
Partially contracted basis set               ... on
Rotationally invariant grid construction     ... off
Angular grids for H and He will be reduced by one unit

Total number of grid points                  ...     5736
Total number of batches                      ...       46
Average number of points per batch           ...      124
Average number of grid points per atom       ...     1912
UseSFitting                                  ... on

GRIDX 3
-------
General Integration Accuracy     IntAcc      ... 4.338
Radial Grid Type                 RadialGrid  ... OptM3 with GC (2021)
Angular Grid (max. ang.)         AngularGrid ... 3 (Lebedev-194)
Angular grid pruning method      GridPruning ... 4 (adaptive)
Weight generation scheme         WeightScheme... mBecke (2022)
Basis function cutoff            BFCut       ... 1.0000e-11
Integration weight cutoff        WCut        ... 1.0000e-14
Partially contracted basis set               ... on
Rotationally invariant grid construction     ... off
Angular grids for H and He will be reduced by one unit

Total number of grid points                  ...    13422
Total number of batches                      ...      107
Average number of points per batch           ...      125
Average number of grid points per atom       ...     4474
UseSFitting                                  ... on
Initializing property integral containers    ... done (  0.0 sec)

SHARK setup successfully completed in   0.3 seconds

Maximum memory used throughout the entire STARTUP-calculation: 9.8 MB
------------------------------------------------------------------------------
                          ORCA RELATIVISTIC HAMILTONIAN
------------------------------------------------------------------------------

Relativistic Method            ... ZORA(MP)
Treatment of potential         ... Van Wuellen
Nucleus model                  ... Point Nucleus
Speed of light used            ... 137.03598950000000


            *************************************************
            *         ZERO ORDER REGULAR APPROXIMATION      *
            *                     ZORA(MP)                  *
            *            Programmed by FN according to      *
            *                   C. van Wuellen              *
            *       J. Chem. Phys. (1998) vol 109, 392-399  *
            *************************************************

Terms included in model potential: +V(e,N)+V(C)+V(Xa)+V(VWN-V)
Basis function cutoff value   ... 1.000000e-11
Loading the fitted atomic densities (ZORA)   ... done
Calculating the cutoffs                      ... done
Number of fit functions                      ... 38
One center approximation for ZORA is active
Finding unique atoms                  ... 2 atom types
AtomType   0 (S ) Member=  0 NMembers=   1, NRad=2000 NumBF= 13
             ... doing numerical integration
             ... adding submatrices to 1 actual atoms
AtomType   1 (O ) Member=  1 NMembers=   2, NRad=2000 NumBF=  9
             ... doing numerical integration
             ... adding submatrices to 2 actual atoms
             ... done with one-center part

Maximum memory used throughout the entire REL-calculation: 0.6 MB
-------------------------------------------------------------------------------
                                 ORCA GUESS
                   Start orbitals & Density for SCF / CASSCF
-------------------------------------------------------------------------------

------------
SCF SETTINGS
------------
Hamiltonian:
 Density Functional     Method          .... DFT(GTOs)
 Exchange Functional    Exchange        .... B88
   X-Alpha parameter    XAlpha          ....  0.666667
   Becke's b parameter  XBeta           ....  0.004200
 Correlation Functional Correlation     .... LYP
 LDA part of GGA corr.  LDAOpt          .... VWN-5
 Gradients option       PostSCFGGA      .... off
 Hybrid DFT is turned on
   Fraction HF Exchange ScalHFX         ....  0.200000
   Scaling of DF-GGA-X  ScalDFX         ....  0.720000
   Scaling of DF-GGA-C  ScalDFC         ....  0.810000
   Scaling of DF-LDA-C  ScalLDAC        ....  1.000000
   Perturbative correction              ....  0.000000
   NL short-range parameter             ....  4.800000
 RI-approximation to the Coulomb term is turned on
   Number of AuxJ basis functions       .... 217
   RIJ-COSX (HFX calculated with COS-X)).... on


General Settings:
 Integral files         IntName         .... ORCA
 Hartree-Fock type      HFTyp           .... RHF
 Total Charge           Charge          ....    0
 Multiplicity           Mult            ....    1
 Number of Electrons    NEL             ....   32
 Basis Dimension        Dim             ....   31
 Nuclear Repulsion      ENuc            ....    101.7567979183 Eh

Convergence Acceleration:
 AO-DIIS                CNVDIIS         .... on
   Start iteration      DIISMaxIt       ....    12
   Startup error        DIISStart       ....  0.200000
   # of expansion vecs  DIISMaxEq       ....     5
   Bias factor          DIISBfac        ....   1.050
   Max. coefficient     DIISMaxC        ....  10.000
 MO-DIIS                CNVKDIIS        .... off
 Trust-Rad. Augm. Hess. CNVTRAH         .... auto
   Auto Start mean grad. ratio tolernc. ....  1.125000
   Auto Start start iteration           ....    50
   Auto Start num. interpolation iter.  ....    10
   Max. Number of Micro iterations      ....    24
   Max. Number of Macro iterations      .... Maxiter - #DIIS iter
   Number of Davidson start vectors     ....     2
   Converg. threshold    (grad. norm)   ....   1.000e-05
   Grad. Scal. Fac. for Micro threshold ....   0.100
   Minimum threshold for Micro iter.    ....   1.000e-02
   NR start threshold (gradient norm)   ....   1.000e-04
   Initial trust radius                 ....   0.400
   Minimum AH scaling param. (alpha)    ....   1.000
   Maximum AH scaling param. (alpha)    .... 1000.000
   Quad. conv. algorithm                .... NR
   White noise on init. David. guess    .... on
   Maximum white noise                  ....   0.010
   Pseudo random numbers                .... off
   Inactive MOs                         .... canonical
   Orbital update algorithm             .... Taylor
   Preconditioner                       .... Diag
   Full preconditioner red. dimension   ....   250
 SOSCF                  CNVSOSCF        .... on
   Start iteration      SOSCFMaxIt      ....   150
   Startup grad/error   SOSCFStart      ....  0.003300
   Hessian update       SOSCFHessUp     .... L-BFGS
 Level Shifting         CNVShift        .... on
   Level shift para.    LevelShift      ....    0.2500
   Turn off err/grad.   ShiftErr        ....    0.0010
 Zerner damping         CNVZerner       .... off
 Static damping         CNVDamp         .... on
   Fraction old density DampFac         ....    0.7000
   Max. Damping (<1)    DampMax         ....    0.9800
   Min. Damping (>=0)   DampMin         ....    0.0000
   Turn off err/grad.   DampErr         ....    0.1000

SCF Procedure:
 Maximum # iterations   MaxIter         ....   700
 SCF integral mode      SCFMode         .... Direct
   Integral package                     .... SHARK and LIBINT hybrid scheme
 Reset frequency        DirectResetFreq ....    20
 Integral Threshold     Thresh          ....  2.500e-11 Eh
 Primitive CutOff       TCut            ....  2.500e-12 Eh

Convergence Tolerance:
 Convergence Check Mode ConvCheckMode   .... Total+1el-Energy
 Convergence forced     ConvForced      .... 1
 Energy Change          TolE            ....  1.000e-08 Eh
 1-El. energy change                    ....  1.000e-05 Eh
 Orbital Gradient       TolG            ....  1.000e-05
 Orbital Rotation angle TolX            ....  1.000e-05
 DIIS Error             TolErr          ....  5.000e-07

------------------------------
INITIAL GUESS: MODEL POTENTIAL
------------------------------
Loading ZORA relativistic densities                ... done
Calculating cut-offs                               ... done
Initializing the effective Hamiltonian             ... done
Setting up the integral package (SHARK)            ... done
Starting the Coulomb interaction                   ... done (   0.0 sec)
Making the grid                                    ... done (   0.0 sec)
Mapping shells                                     ... done
Starting the XC term evaluation                    ... done (   0.0 sec)
  promolecular density results
     # of electrons  =     32.000723889
     EX              =    -41.522421841
     EC              =     -1.247424401
     EX+EC           =    -42.769846242
Transforming the Hamiltonian                       ... done (   0.0 sec)
Diagonalizing the Hamiltonian                      ... done (   0.0 sec)
Back transforming the eigenvectors                 ... done (   0.0 sec)
Now organizing SCF variables                       ... done
                      ------------------
                      INITIAL GUESS DONE (   0.1 sec)
                      ------------------
             **** ENERGY FILE WAS UPDATED (ORCA.en.tmp) ****
Finished Guess after   0.1 sec
Maximum memory used throughout the entire GUESS-calculation: 5.9 MB

-------------------------------------------------------------------------------------------
                                      ORCA LEAN-SCF
                              memory conserving SCF solver
-------------------------------------------------------------------------------------------

--------------
OVERLAP MATRIX
--------------
                  0          1          2          3          4          5    
      0       1.000000   0.262730   0.000000   0.000000   0.000000   0.010230
      1       0.262730   1.000000   0.000000   0.000000   0.000000   0.322819
      2       0.000000   0.000000   1.000000   0.000000   0.000000   0.000000
      3       0.000000   0.000000   0.000000   1.000000   0.000000   0.000000
      4       0.000000   0.000000   0.000000   0.000000   1.000000   0.000000
      5       0.010230   0.322819   0.000000   0.000000   0.000000   1.000000
      6       0.000000   0.000000   0.310508   0.000000   0.000000   0.000000
      7       0.000000   0.000000   0.000000   0.310508   0.000000   0.000000
      8       0.000000   0.000000   0.000000   0.000000   0.310508   0.000000
      9       0.032314   0.249082   0.000000   0.000000   0.000000   0.828321
     10       0.000000   0.000000   0.069629   0.000000   0.000000   0.000000
     11       0.000000   0.000000   0.000000   0.069629   0.000000   0.000000
     12       0.000000   0.000000   0.000000   0.000000   0.069629   0.000000
     13       0.000000   0.000002   0.000003   0.000000   0.000005   0.014896
     14       0.000065   0.002985   0.002392   0.000000   0.004145   0.117948
     15      -0.000116  -0.003747  -0.001970   0.000000  -0.005292  -0.063620
     16       0.000000   0.000000   0.000000   0.001084   0.000000   0.000000
     17      -0.000200  -0.006495  -0.005292   0.000000  -0.008090  -0.110275
     18       0.006961   0.060290   0.017718   0.000000   0.030711   0.304457
     19      -0.010171  -0.080020   0.000385   0.000000  -0.041034  -0.245426
     20       0.000000   0.000000   0.000000   0.024058   0.000000   0.000000
     21      -0.017629  -0.138701  -0.041034   0.000000  -0.047068  -0.425405
     22       0.000000   0.000001   0.000001   0.000000  -0.000002   0.012346
     23       0.000037   0.002014   0.001820   0.000000  -0.002784   0.102111
     24      -0.000075  -0.002852  -0.001888   0.000000   0.003999  -0.062163
     25       0.000000   0.000000   0.000000   0.000727   0.000000   0.000000
     26       0.000114   0.004361   0.003999   0.000000  -0.005390   0.095074
     27       0.005973   0.052466   0.017458   0.000000  -0.026701   0.279791
     28      -0.009891  -0.078904  -0.005513   0.000000   0.040422  -0.255953
     29       0.000000   0.000000   0.000000   0.020917   0.000000   0.000000
     30       0.015128   0.120677   0.040422   0.000000  -0.040905   0.391457
                  6          7          8          9         10         11    
      0       0.000000   0.000000   0.000000   0.032314   0.000000   0.000000
      1       0.000000   0.000000   0.000000   0.249082   0.000000   0.000000
      2       0.310508   0.000000   0.000000   0.000000   0.069629   0.000000
      3       0.000000   0.310508   0.000000   0.000000   0.000000   0.069629
      4       0.000000   0.000000   0.310508   0.000000   0.000000   0.000000
      5       0.000000   0.000000   0.000000   0.828321   0.000000   0.000000
      6       1.000000   0.000000   0.000000   0.000000   0.633490   0.000000
      7       0.000000   1.000000   0.000000   0.000000   0.000000   0.633490
      8       0.000000   0.000000   1.000000   0.000000   0.000000   0.000000
      9       0.000000   0.000000   0.000000   1.000000   0.000000   0.000000
     10       0.633490   0.000000   0.000000   0.000000   1.000000   0.000000
     11       0.000000   0.633490   0.000000   0.000000   0.000000   1.000000
     12       0.000000   0.000000   0.633490   0.000000   0.000000   0.000000
     13       0.017274   0.000000   0.029942   0.036270   0.034701   0.000000
     14       0.112393   0.000000   0.194814   0.215777   0.186523   0.000000
     15      -0.007219   0.000000  -0.115307  -0.048897   0.057912   0.000000
     16       0.000000   0.059305   0.000000   0.000000   0.000000   0.100790
     17      -0.115307   0.000000  -0.140561  -0.084754  -0.074321   0.000000
     18       0.189380   0.000000   0.328258   0.456434   0.308844   0.000000
     19       0.092960   0.000000  -0.284596  -0.203449   0.281702   0.000000
     20       0.000000   0.257150   0.000000   0.000000   0.000000   0.419365
     21      -0.284596   0.000000  -0.236149  -0.352644  -0.238615   0.000000
     22       0.016149   0.000000  -0.024699   0.033953   0.036816   0.000000
     23       0.109169   0.000000  -0.166964   0.203284   0.199160   0.000000
     24      -0.021692   0.000000   0.110555  -0.052163   0.043034   0.000000
     25       0.000000   0.050594   0.000000   0.000000   0.000000   0.094872
     26       0.110555   0.000000  -0.118490   0.079778   0.079282   0.000000
     27       0.196011   0.000000  -0.299782   0.435614   0.334057   0.000000
     28       0.042520   0.000000   0.294141  -0.220058   0.231482   0.000000
     29       0.000000   0.234843   0.000000   0.000000   0.000000   0.400236
     30       0.294141   0.000000  -0.215020   0.336559   0.258095   0.000000
                 12         13         14         15         16         17    
      0       0.000000   0.000000   0.000065  -0.000116   0.000000  -0.000200
      1       0.000000   0.000002   0.002985  -0.003747   0.000000  -0.006495
      2       0.000000   0.000003   0.002392  -0.001970   0.000000  -0.005292
      3       0.000000   0.000000   0.000000   0.000000   0.001084   0.000000
      4       0.069629   0.000005   0.004145  -0.005292   0.000000  -0.008090
      5       0.000000   0.014896   0.117948  -0.063620   0.000000  -0.110275
      6       0.000000   0.017274   0.112393  -0.007219   0.000000  -0.115307
      7       0.000000   0.000000   0.000000   0.000000   0.059305   0.000000
      8       0.633490   0.029942   0.194814  -0.115307   0.000000  -0.140561
      9       0.000000   0.036270   0.215777  -0.048897   0.000000  -0.084754
     10       0.000000   0.034701   0.186523   0.057912   0.000000  -0.074321
     11       0.000000   0.000000   0.000000   0.000000   0.100790   0.000000
     12       1.000000   0.060149   0.323307  -0.074321   0.000000  -0.028033
     13       0.060149   1.000000   0.233690  -0.000000   0.000000  -0.000000
     14       0.323307   0.233690   1.000000  -0.000000   0.000000   0.000000
     15      -0.074321  -0.000000  -0.000000   1.000000   0.000000   0.000000
     16       0.000000   0.000000   0.000000   0.000000   1.000000   0.000000
     17      -0.028033  -0.000000   0.000000   0.000000   0.000000   1.000000
     18       0.535329   0.167280   0.763641   0.000000   0.000000  -0.000000
     19      -0.238615  -0.000000   0.000000   0.501521   0.000000   0.000000
     20       0.000000   0.000000   0.000000   0.000000   0.501521   0.000000
     21       0.005765   0.000000   0.000000   0.000000   0.000000   0.501521
     22      -0.056306   0.000000   0.000000   0.000000   0.000000  -0.000000
     23      -0.304598   0.000000   0.000006   0.000001   0.000000  -0.000019
     24       0.079282  -0.000000  -0.000001   0.000002   0.000000   0.000002
     25       0.000000   0.000000   0.000000   0.000000   0.000003   0.000000
     26      -0.026383   0.000000   0.000019   0.000002   0.000000  -0.000059
     27      -0.510911   0.000301   0.004655   0.000262   0.000000  -0.006808
     28       0.258095  -0.000057  -0.000718   0.002625   0.000000   0.001066
     29       0.000000   0.000000   0.000000   0.000000   0.002666   0.000000
     30       0.005502   0.001488   0.018656   0.001066   0.000000  -0.025059
                 18         19         20         21         22         23    
      0       0.006961  -0.010171   0.000000  -0.017629   0.000000   0.000037
      1       0.060290  -0.080020   0.000000  -0.138701   0.000001   0.002014
      2       0.017718   0.000385   0.000000  -0.041034   0.000001   0.001820
      3       0.000000   0.000000   0.024058   0.000000   0.000000   0.000000
      4       0.030711  -0.041034   0.000000  -0.047068  -0.000002  -0.002784
      5       0.304457  -0.245426   0.000000  -0.425405   0.012346   0.102111
      6       0.189380   0.092960   0.000000  -0.284596   0.016149   0.109169
      7       0.000000   0.000000   0.257150   0.000000   0.000000   0.000000
      8       0.328258  -0.284596   0.000000  -0.236149  -0.024699  -0.166964
      9       0.456434  -0.203449   0.000000  -0.352644   0.033953   0.203284
     10       0.308844   0.281702   0.000000  -0.238615   0.036816   0.199160
     11       0.000000   0.000000   0.419365   0.000000   0.000000   0.000000
     12       0.535329  -0.238615   0.000000   0.005765  -0.056306  -0.304598
     13       0.167280  -0.000000   0.000000   0.000000   0.000000   0.000000
     14       0.763641   0.000000   0.000000   0.000000   0.000000   0.000006
     15       0.000000   0.501521   0.000000   0.000000   0.000000   0.000001
     16       0.000000   0.000000   0.501521   0.000000   0.000000   0.000000
     17      -0.000000   0.000000   0.000000   0.501521  -0.000000  -0.000019
     18       1.000000   0.000000   0.000000   0.000000   0.000301   0.004655
     19       0.000000   1.000000   0.000000   0.000000   0.000057   0.000718
     20       0.000000   0.000000   1.000000   0.000000   0.000000   0.000000
     21       0.000000   0.000000   0.000000   1.000000  -0.001488  -0.018656
     22       0.000301   0.000057   0.000000  -0.001488   1.000000   0.233690
     23       0.004655   0.000718   0.000000  -0.018656   0.233690   1.000000
     24      -0.000262   0.002625   0.000000   0.001066  -0.000000  -0.000000
     25       0.000000   0.000000   0.002666   0.000000   0.000000   0.000000
     26       0.006808   0.001066   0.000000  -0.025059   0.000000  -0.000000
     27       0.038241   0.003755   0.000000  -0.097631   0.167280   0.763641
     28      -0.003755   0.037872   0.000000   0.009587   0.000000   0.000000
     29       0.000000   0.000000   0.038241   0.000000   0.000000   0.000000
     30       0.097631   0.009587   0.000000  -0.211016  -0.000000  -0.000000
                 24         25         26         27         28         29    
      0      -0.000075   0.000000   0.000114   0.005973  -0.009891   0.000000
      1      -0.002852   0.000000   0.004361   0.052466  -0.078904   0.000000
      2      -0.001888   0.000000   0.003999   0.017458  -0.005513   0.000000
      3       0.000000   0.000727   0.000000   0.000000   0.000000   0.020917
      4       0.003999   0.000000  -0.005390  -0.026701   0.040422   0.000000
      5      -0.062163   0.000000   0.095074   0.279791  -0.255953   0.000000
      6      -0.021692   0.000000   0.110555   0.196011   0.042520   0.000000
      7       0.000000   0.050594   0.000000   0.000000   0.000000   0.234843
      8       0.110555   0.000000  -0.118490  -0.299782   0.294141   0.000000
      9      -0.052163   0.000000   0.079778   0.435614  -0.220058   0.000000
     10       0.043034   0.000000   0.079282   0.334057   0.231482   0.000000
     11       0.000000   0.094872   0.000000   0.000000   0.000000   0.400236
     12       0.079282   0.000000  -0.026383  -0.510911   0.258095   0.000000
     13      -0.000000   0.000000   0.000000   0.000301  -0.000057   0.000000
     14      -0.000001   0.000000   0.000019   0.004655  -0.000718   0.000000
     15       0.000002   0.000000   0.000002   0.000262   0.002625   0.000000
     16       0.000000   0.000003   0.000000   0.000000   0.000000   0.002666
     17       0.000002   0.000000  -0.000059  -0.006808   0.001066   0.000000
     18      -0.000262   0.000000   0.006808   0.038241  -0.003755   0.000000
     19       0.002625   0.000000   0.001066   0.003755   0.037872   0.000000
     20       0.000000   0.002666   0.000000   0.000000   0.000000   0.038241
     21       0.001066   0.000000  -0.025059  -0.097631   0.009587   0.000000
     22      -0.000000   0.000000   0.000000   0.167280   0.000000   0.000000
     23      -0.000000   0.000000  -0.000000   0.763641   0.000000   0.000000
     24       1.000000   0.000000  -0.000000  -0.000000   0.501521   0.000000
     25       0.000000   1.000000   0.000000   0.000000   0.000000   0.501521
     26      -0.000000   0.000000   1.000000   0.000000   0.000000   0.000000
     27      -0.000000   0.000000   0.000000   1.000000   0.000000   0.000000
     28       0.501521   0.000000   0.000000   0.000000   1.000000   0.000000
     29       0.000000   0.501521   0.000000   0.000000   0.000000   1.000000
     30       0.000000   0.000000   0.501521   0.000000   0.000000   0.000000
                 30    
      0       0.015128
      1       0.120677
      2       0.040422
      3       0.000000
      4      -0.040905
      5       0.391457
      6       0.294141
      7       0.000000
      8      -0.215020
      9       0.336559
     10       0.258095
     11       0.000000
     12       0.005502
     13       0.001488
     14       0.018656
     15       0.001066
     16       0.000000
     17      -0.025059
     18       0.097631
     19       0.009587
     20       0.000000
     21      -0.211016
     22      -0.000000
     23      -0.000000
     24       0.000000
     25       0.000000
     26       0.501521
     27       0.000000
     28       0.000000
     29       0.000000
     30       1.000000
----------------------------------------D-I-I-S--------------------------------------------
Iteration    Energy (Eh)           Delta-E    RMSDP     MaxDP     DIISErr   Damp  Time(sec)
-------------------------------------------------------------------------------------------
               ***  Starting incremental Fock matrix formation  ***
    1    -549.8373660067927631     0.00e+00  2.80e-02  2.24e-01  3.29e-01  0.700   0.3
    2    -550.0151537182586026    -1.78e-01  1.48e-02  1.43e-01  1.35e-01  0.700   0.3
                               ***Turning on AO-DIIS***
    3    -550.0562139415350202    -4.11e-02  3.90e-03  4.39e-02  2.84e-02  0.700   0.3
    4    -550.0841391733250703    -2.79e-02  6.88e-03  5.63e-02  3.51e-02  0.000   0.3
    5    -550.1596953650018804    -7.56e-02  3.01e-03  3.11e-02  3.20e-02  0.000   0.2
    6    -550.1619837825992363    -2.29e-03  1.11e-03  8.86e-03  1.46e-02  0.000   0.2
    7    -550.1622784252426754    -2.95e-04  4.60e-04  4.10e-03  6.37e-03  0.000   0.2
                              *** Initializing SOSCF ***
---------------------------------------S-O-S-C-F--------------------------------------
Iteration    Energy (Eh)           Delta-E    RMSDP     MaxDP     MaxGrad    Time(sec)
--------------------------------------------------------------------------------------
    8    -550.1623435913096500    -6.52e-05  1.62e-04  2.09e-03  1.51e-03     0.2
               *** Restarting incremental Fock matrix formation ***
    9    -550.1623506170517430    -7.03e-06  1.76e-04  1.99e-03  4.48e-04     0.2
   10    -550.1623484457892346     2.17e-06  1.21e-04  1.03e-03  6.43e-04     0.2
   11    -550.1623509462935999    -2.50e-06  1.88e-04  1.64e-03  3.62e-04     0.2
   12    -550.1623467097821276     4.24e-06  1.47e-04  1.34e-03  7.84e-04     0.2
   13    -550.1623514789329192    -4.77e-06  1.70e-06  1.10e-05  6.11e-06     0.2
   14    -550.1623514786812166     2.52e-10  7.31e-07  6.43e-06  2.11e-06     0.1
                 **** Energy Check signals convergence ****

               *****************************************************
               *                     SUCCESS                       *
               *           SCF CONVERGED AFTER  14 CYCLES          *
               *****************************************************

Recomputing exchange energy using gridx3       ... done (    0.285 sec)
Old exchange energy                            :     -8.258581085 Eh
New exchange energy                            :     -8.258559355 Eh
Exchange energy change after final integration :      0.000021730 Eh
Total energy after final integration           :   -550.162329748 Eh
             **** ENERGY FILE WAS UPDATED (ORCA.en.tmp) ****

----------------
TOTAL SCF ENERGY
----------------

Total Energy       :       -550.16232974821264 Eh          -14970.67809 eV

Components:
Nuclear Repulsion  :        101.75679791827399 Eh            2768.94324 eV
Electronic Energy  :       -651.91914939695516 Eh          -17739.62192 eV
One Electron Energy:       -958.78049550629453 Eh          -26089.74366 eV
Two Electron Energy:        306.86134610933937 Eh            8350.12174 eV

Virial components:
Potential Energy   :      -1095.67813499471322 Eh          -29814.91781 eV
Kinetic Energy     :        545.51580524650058 Eh           14844.23973 eV
Virial Ratio       :          2.00851767163669

DFT components:
N(Alpha)           :       15.999998631106 electrons
N(Beta)            :       15.999998631106 electrons
N(Total)           :       31.999997262213 electrons
E(X)               :      -32.956696043853 Eh       
E(C)               :       -1.461591970156 Eh       
E(XC)              :      -34.418288014009 Eh       

---------------
SCF CONVERGENCE
---------------

  Last Energy change         ...   -2.5170e-10  Tolerance :   1.0000e-08
  Last MAX-Density change    ...    6.4252e-06  Tolerance :   1.0000e-07
  Last RMS-Density change    ...    7.3070e-07  Tolerance :   5.0000e-09
  Last DIIS Error            ...    1.5072e-03  Tolerance :   5.0000e-07
  Last Orbital Gradient      ...    2.1146e-06  Tolerance :   1.0000e-05
  Last Orbital Rotation      ...    1.5597e-06  Tolerance :   1.0000e-05


----------------
ORBITAL ENERGIES
----------------

  NO   OCC          E(Eh)            E(eV) 
   0   2.0000     -89.746875     -2442.1366 
   1   2.0000     -19.259975      -524.0906 
   2   2.0000     -19.254526      -523.9423 
   3   2.0000      -8.219751      -223.6708 
   4   2.0000      -6.136665      -166.9871 
   5   2.0000      -6.131712      -166.8524 
   6   2.0000      -6.128728      -166.7712 
   7   2.0000      -1.158722       -31.5304 
   8   2.0000      -1.052566       -28.6418 
   9   2.0000      -0.672878       -18.3099 
  10   2.0000      -0.495390       -13.4803 
  11   2.0000      -0.489445       -13.3185 
  12   2.0000      -0.486550       -13.2397 
  13   2.0000      -0.352006        -9.5786 
  14   2.0000      -0.347427        -9.4540 
  15   2.0000      -0.324855        -8.8398 
  16   0.0000      -0.168021        -4.5721 
  17   0.0000       0.010484         0.2853 
  18   0.0000       0.044921         1.2224 
  19   0.0000       0.219764         5.9801 
  20   0.0000       0.279174         7.5967 
  21   0.0000       0.308417         8.3925 
  22   0.0000       0.359349         9.7784 
  23   0.0000       0.848794        23.0969 
  24   0.0000       0.852897        23.2085 
  25   0.0000       0.919370        25.0173 
  26   0.0000       0.934134        25.4191 
*Only the first 10 virtual orbitals were printed.
------------------
MOLECULAR ORBITALS (RHF, ROHF)
------------------
                      0         1         2         3         4         5   
                 -89.74687 -19.25997 -19.25453  -8.21975  -6.13667  -6.13171
                   2.00000   2.00000   2.00000   2.00000   2.00000   2.00000
                  --------  --------  --------  --------  --------  --------
  0S   1s        -0.997488 -0.000008  0.000005  0.278529 -0.000601 -0.000000
  0S   2s        -0.009354  0.000098 -0.000025 -1.028225  0.002217  0.000000
  0S   1pz       -0.000146  0.000000  0.000014 -0.016757 -0.008287 -0.000000
  0S   1px       -0.000000  0.000000 -0.000000 -0.000000  0.000000 -0.991885
  0S   1py       -0.000015  0.000057  0.000035 -0.001831 -0.991053 -0.000000
  0S   3s         0.002752  0.000347 -0.000202 -0.031302 -0.000505 -0.000000
  0S   2pz        0.000253  0.000623 -0.000666 -0.002937 -0.000338 -0.000000
  0S   2px        0.000000  0.000000  0.000000 -0.000000  0.000000 -0.026998
  0S   2py        0.000035  0.000777  0.000698 -0.000454 -0.030581 -0.000000
  0S   4s        -0.000860  0.004967 -0.004698  0.008413  0.000000  0.000000
  0S   3pz        0.000087  0.002322 -0.002381  0.000258  0.000092  0.000000
  0S   3px        0.000000 -0.000000  0.000000 -0.000000 -0.000000  0.007316
  0S   3py        0.000000  0.002800  0.002546  0.000068  0.007218  0.000000
  1O   1s         0.000017  0.995241  0.000533  0.000070  0.000360  0.000000
  1O   2s         0.000065  0.027426 -0.000216 -0.000136  0.000263 -0.000000
  1O   1pz        0.000031 -0.001066 -0.000137 -0.000026  0.000141  0.000000
  1O   1px       -0.000000 -0.000000  0.000000  0.000000 -0.000000  0.000184
  1O   1py        0.000044 -0.002012  0.000046 -0.000025  0.000308 -0.000000
  1O   3s        -0.000299 -0.013823  0.000931  0.001183  0.000762  0.000000
  1O   2pz        0.000152  0.001713  0.000596 -0.001024 -0.001602 -0.000000
  1O   2px       -0.000000 -0.000000 -0.000000 -0.000000  0.000000 -0.000114
  1O   2py        0.000340  0.003322 -0.000771 -0.002134 -0.002289 -0.000000
  2O   1s         0.000016  0.000569 -0.995253  0.000025 -0.000224  0.000000
  2O   2s         0.000082  0.000246 -0.027170 -0.000157 -0.000310  0.000000
  2O   1pz        0.000021  0.000132  0.001086 -0.000045 -0.000011  0.000000
  2O   1px       -0.000000  0.000000 -0.000000 -0.000000  0.000000  0.000169
  2O   1py       -0.000023  0.000055 -0.001809  0.000038  0.000070 -0.000000
  2O   3s        -0.000271 -0.000930  0.013241  0.000939 -0.000495  0.000000
  2O   2pz        0.000161 -0.000521 -0.001795 -0.001001  0.001513  0.000000
  2O   2px       -0.000000 -0.000000 -0.000000  0.000000 -0.000000 -0.000132
  2O   2py       -0.000315 -0.000796  0.003042  0.001860 -0.001904  0.000000
                      6         7         8         9        10        11   
                  -6.12873  -1.15872  -1.05257  -0.67288  -0.49539  -0.48944
                   2.00000   2.00000   2.00000   2.00000   2.00000   2.00000
                  --------  --------  --------  --------  --------  --------
  0S   1s        -0.004951 -0.047319  0.007084 -0.063748 -0.000000 -0.004502
  0S   2s         0.018558  0.213010 -0.031619  0.280518  0.000000  0.024370
  0S   1pz       -0.991485  0.064421 -0.011962 -0.040512 -0.000000 -0.150687
  0S   1px        0.000000  0.000000 -0.000000 -0.000000  0.215160  0.000000
  0S   1py        0.008360  0.025624  0.117575 -0.004859 -0.000000  0.119652
  0S   3s        -0.002524 -0.446516  0.069591 -0.695880 -0.000000 -0.028473
  0S   2pz       -0.028166 -0.144007  0.028009  0.081413  0.000000  0.409588
  0S   2px        0.000000 -0.000000  0.000000  0.000000 -0.576265 -0.000000
  0S   2py        0.000140 -0.054050 -0.253550  0.008662  0.000000 -0.331032
  0S   4s        -0.001567  0.023671  0.003672 -0.221978 -0.000000 -0.066537
  0S   3pz        0.006514  0.039992 -0.005769  0.031683  0.000000  0.104874
  0S   3px       -0.000000 -0.000000  0.000000  0.000000 -0.185780 -0.000000
  0S   3py       -0.000005  0.015401  0.062193  0.000817  0.000000 -0.019744
  1O   1s         0.000179  0.145401  0.126397 -0.109897  0.000000 -0.021395
  1O   2s        -0.000208 -0.316620 -0.276640  0.251263 -0.000000  0.054375
  1O   1pz        0.000206  0.069756  0.057564  0.079578 -0.000000  0.293330
  1O   1px       -0.000000 -0.000000 -0.000000 -0.000000 -0.313748 -0.000000
  1O   1py        0.000149  0.132803  0.083329  0.099902 -0.000000 -0.049772
  1O   3s         0.001486 -0.318380 -0.303033  0.356852 -0.000000  0.062501
  1O   2pz       -0.000892  0.029307  0.031136  0.023147 -0.000000  0.184447
  1O   2px        0.000000  0.000000 -0.000000 -0.000000 -0.195451 -0.000000
  1O   2py       -0.001860  0.059488  0.045142  0.024030 -0.000000 -0.038509
  2O   1s         0.000124  0.095791 -0.169372 -0.107023 -0.000000  0.074687
  2O   2s        -0.000183 -0.208621  0.370814  0.245138  0.000000 -0.167136
  2O   1pz        0.000139  0.047905 -0.076774  0.080665  0.000000 -0.104036
  2O   1px       -0.000000  0.000000 -0.000000  0.000000 -0.252834 -0.000000
  2O   1py       -0.000037 -0.086002  0.109468 -0.090463 -0.000000  0.340208
  2O   3s         0.001443 -0.208589  0.400579  0.339047  0.000000 -0.290027
  2O   2pz       -0.001092  0.020644 -0.043109  0.024836  0.000000 -0.032149
  2O   2px        0.000000  0.000000 -0.000000 -0.000000 -0.154189 -0.000000
  2O   2py        0.001845 -0.041451  0.061687 -0.023765 -0.000000  0.173306
                     12        13        14        15        16        17   
                  -0.48655  -0.35201  -0.34743  -0.32486  -0.16802   0.01048
                   2.00000   2.00000   2.00000   2.00000   0.00000   0.00000
                  --------  --------  --------  --------  --------  --------
  0S   1s         0.005754  0.000000  0.002077  0.016868 -0.000000  0.027585
  0S   2s        -0.031106 -0.000000 -0.010916 -0.087091  0.000000 -0.130280
  0S   1pz        0.136511  0.000000  0.019313  0.102364 -0.000000 -0.171390
  0S   1px        0.000000 -0.013388  0.000000 -0.000000  0.208354 -0.000000
  0S   1py        0.133301  0.000000 -0.003004 -0.000132  0.000000  0.030844
  0S   3s         0.038272  0.000000  0.017073  0.150454 -0.000000  0.320663
  0S   2pz       -0.370889 -0.000000 -0.053991 -0.279458  0.000000  0.551458
  0S   2px       -0.000000  0.037509 -0.000000  0.000000 -0.612733  0.000000
  0S   2py       -0.369078 -0.000000  0.001094  0.003883 -0.000000 -0.093253
  0S   4s         0.096127  0.000000  0.042657  0.448093  0.000000  0.837327
  0S   3pz       -0.091623  0.000000 -0.009205  0.026375  0.000000  0.767565
  0S   3px       -0.000000  0.024688 -0.000000  0.000000 -0.307823  0.000000
  0S   3py       -0.010761  0.000000 -0.179943  0.026370 -0.000000 -0.119556
  1O   1s        -0.076875 -0.000000  0.001043  0.001382  0.000000  0.045888
  1O   2s         0.173413  0.000000 -0.018268  0.013554  0.000000 -0.090886
  1O   1pz        0.099451 -0.000000  0.347059  0.396384 -0.000000 -0.057912
  1O   1px       -0.000000 -0.445065 -0.000000  0.000000  0.391914 -0.000000
  1O   1py        0.386079  0.000000 -0.329411  0.066978  0.000000  0.345776
  1O   3s         0.294096 -0.000000  0.083334 -0.122736 -0.000000 -0.491372
  1O   2pz        0.030352 -0.000000  0.224965  0.314018 -0.000000 -0.035988
  1O   2px       -0.000000 -0.345156 -0.000000  0.000000  0.333781 -0.000000
  1O   2py        0.196894  0.000000 -0.249373  0.067652  0.000000  0.428839
  2O   1s         0.026277 -0.000000 -0.004913 -0.001725 -0.000000  0.060548
  2O   2s        -0.066458 -0.000000  0.030608  0.018936  0.000000 -0.114948
  2O   1pz       -0.251451  0.000000 -0.258959  0.474668  0.000000  0.066938
  2O   1px       -0.000000  0.479336  0.000000 -0.000000  0.391340 -0.000000
  2O   1py       -0.018439  0.000000 -0.391839  0.003817 -0.000000 -0.394038
  2O   3s        -0.078059  0.000000 -0.080206 -0.086690  0.000000 -0.644381
  2O   2pz       -0.158401  0.000000 -0.155178  0.365348  0.000000  0.109627
  2O   2px       -0.000000  0.364070  0.000000 -0.000000  0.328325 -0.000000
  2O   2py       -0.018934  0.000000 -0.295488 -0.016225 -0.000000 -0.498858
                     18        19        20        21        22        23   
                   0.04492   0.21976   0.27917   0.30842   0.35935   0.84879
                   0.00000   0.00000   0.00000   0.00000   0.00000   0.00000
                  --------  --------  --------  --------  --------  --------
  0S   1s         0.003054  0.068480  0.000000 -0.012867 -0.006053  0.005558
  0S   2s        -0.018611 -0.089855 -0.000000  0.011095  0.010494  0.000390
  0S   1pz       -0.018926  0.053833 -0.000000  0.269298  0.045183 -0.021844
  0S   1px        0.000000 -0.000000  0.258965  0.000000  0.000000 -0.000000
  0S   1py       -0.175447  0.004046 -0.000000 -0.044057  0.315125 -0.001893
  0S   3s         0.022817  1.634092  0.000000 -0.326015 -0.137982  0.178092
  0S   2pz        0.065733 -0.225685  0.000000 -1.124461 -0.191828  0.155917
  0S   2px       -0.000000  0.000000 -1.089910 -0.000000 -0.000000  0.000000
  0S   2py        0.564798 -0.021956  0.000000  0.180286 -1.308643  0.019705
  0S   4s         0.237073 -2.154668 -0.000000  0.461304  0.086731  0.252338
  0S   3pz        0.123488 -0.047289 -0.000000  1.446177  0.190748  0.425149
  0S   3px       -0.000000 -0.000000  1.375832  0.000000  0.000000 -0.000000
  0S   3py        1.195897  0.074784 -0.000000 -0.239478  1.372388 -0.001895
  1O   1s         0.064223 -0.017106  0.000000  0.002843 -0.009545  0.028059
  1O   2s        -0.106126  0.013641 -0.000000  0.018362  0.069800 -0.187116
  1O   1pz        0.260431  0.099461  0.000000 -0.097892 -0.145324  0.416576
  1O   1px        0.000000 -0.000000 -0.052287  0.000000 -0.000000  0.000000
  1O   1py        0.165903  0.107321  0.000000 -0.103315 -0.288516 -0.509929
  1O   3s        -0.832695  0.409247  0.000000 -0.243489 -0.331400 -0.067411
  1O   2pz        0.336163 -0.010548  0.000000 -0.153052 -0.082368 -0.457403
  1O   2px        0.000000  0.000000 -0.136856 -0.000000  0.000000 -0.000000
  1O   2py        0.304095 -0.073371  0.000000  0.028949 -0.224977  0.736498
  2O   1s        -0.042767 -0.021471 -0.000000  0.004177  0.004903  0.026887
  2O   2s         0.066417  0.019995 -0.000000  0.034254 -0.049192 -0.185609
  2O   1pz       -0.271447  0.088021  0.000000 -0.142621  0.104037  0.393324
  2O   1px        0.000000  0.000000 -0.058798 -0.000000 -0.000000 -0.000000
  2O   1py        0.048717 -0.098766  0.000000  0.170854 -0.198589  0.504825
  2O   3s         0.554964  0.464376  0.000000 -0.406448  0.279769 -0.055021
  2O   2pz       -0.331694 -0.047776  0.000000 -0.136900  0.003703 -0.420965
  2O   2px        0.000000 -0.000000 -0.140924 -0.000000  0.000000  0.000000
  2O   2py        0.133648  0.096559  0.000000 -0.009196 -0.155893 -0.705756
                     24        25        26        27        28        29   
                   0.85290   0.91937   0.93413   0.93599   1.01525   1.37047
                   0.00000   0.00000   0.00000   0.00000   0.00000   0.00000
                  --------  --------  --------  --------  --------  --------
  0S   1s         0.000000 -0.007251  0.015696  0.000000 -0.000785 -0.000546
  0S   2s        -0.000000 -0.019077  0.027314  0.000000  0.004185  0.012169
  0S   1pz       -0.000000  0.008464 -0.024028 -0.000000  0.002832  0.006659
  0S   1px       -0.000117  0.000000  0.000000 -0.002201  0.000000 -0.000000
  0S   1py       -0.000000  0.037539  0.019402  0.000000 -0.023243 -0.059341
  0S   3s         0.000000 -0.296737  0.596198  0.000000 -0.010355  0.024258
  0S   2pz        0.000000 -0.106664  0.260654  0.000000 -0.012820 -0.031695
  0S   2px       -0.005688 -0.000000 -0.000000  0.015996 -0.000000  0.000000
  0S   2py        0.000000 -0.360084 -0.140555 -0.000000  0.278292  0.583808
  0S   4s         0.000000 -0.029644  0.039621  0.000000  0.008520 -0.049516
  0S   3pz        0.000000  0.099245 -0.202316 -0.000000  0.025628 -0.055593
  0S   3px       -0.024881 -0.000000 -0.000000  0.524060 -0.000000  0.000000
  0S   3py       -0.000000 -0.062849 -0.030079 -0.000000 -0.478533  0.881335
  1O   1s         0.000000 -0.046502  0.005895  0.000000  0.004518 -0.044023
  1O   2s        -0.000000  0.354986  0.026762  0.000000 -0.029768  1.116668
  1O   1pz        0.000000  0.712296 -0.238301 -0.000000  0.323799 -0.202690
  1O   1px       -0.699320 -0.000000 -0.000000  0.650808 -0.000000  0.000000
  1O   1py       -0.000000  0.388887 -0.247708 -0.000000 -0.571147 -0.141976
  1O   3s        -0.000000 -0.123569 -0.078437 -0.000000  0.124777 -1.742246
  1O   2pz       -0.000000 -0.998371  0.358442  0.000000 -0.404785  0.580948
  1O   2px        0.790746  0.000000  0.000000 -0.876698  0.000000 -0.000000
  1O   2py        0.000000 -0.672477  0.406467  0.000000  0.805894  0.469330
  2O   1s         0.000000  0.027189  0.039231  0.000000 -0.006430  0.049859
  2O   2s        -0.000000 -0.269806 -0.293932 -0.000000  0.059863 -1.220954
  2O   1pz        0.000000 -0.276660 -0.727242 -0.000000 -0.271108  0.228637
  2O   1px        0.656423 -0.000000 -0.000000  0.694283 -0.000000  0.000000
  2O   1py        0.000000  0.078922  0.388711  0.000000 -0.628952 -0.169300
  2O   3s        -0.000000  0.163671  0.130025  0.000000 -0.164734  1.864381
  2O   2pz       -0.000000  0.366869  1.011298  0.000000  0.335688 -0.617105
  2O   2px       -0.725868  0.000000  0.000000 -0.916007  0.000000 -0.000000
  2O   2py       -0.000000 -0.143877 -0.641664 -0.000000  0.859660  0.509637
                     30   
                   1.43336
                   0.00000
                  --------
  0S   1s         0.011189
  0S   2s        -0.039139
  0S   1pz       -0.045458
  0S   1px       -0.000000
  0S   1py       -0.001283
  0S   3s         0.280454
  0S   2pz        0.391021
  0S   2px        0.000000
  0S   2py        0.058036
  0S   4s         1.641477
  0S   3pz        0.810592
  0S   3px       -0.000000
  0S   3py        0.080430
  1O   1s        -0.042765
  1O   2s         1.318627
  1O   1pz       -0.018914
  1O   1px       -0.000000
  1O   1py       -0.193855
  1O   3s        -2.248545
  1O   2pz        0.173111
  1O   2px        0.000000
  1O   2py        0.828892
  2O   1s        -0.039651
  2O   2s         1.179284
  2O   1pz       -0.020992
  2O   1px       -0.000000
  2O   1py        0.194311
  2O   3s        -1.972720
  2O   2pz        0.163898
  2O   2px        0.000000
  2O   2py       -0.756570



                    ********************************
                    * MULLIKEN POPULATION ANALYSIS *
                    ********************************

-----------------------
MULLIKEN ATOMIC CHARGES
-----------------------
   0 S :    0.965606
   1 O :   -0.477989
   2 O :   -0.487617
Sum of atomic charges:    0.0000000

--------------------------------
MULLIKEN REDUCED ORBITAL CHARGES
--------------------------------
  0 S s       :     5.908577  s :     5.908577
      pz      :     3.172303  p :     9.125817
      px      :     3.143893
      py      :     2.809621

  1 O s       :     3.996304  s :     3.996304
      pz      :     1.721296  p :     4.481685
      px      :     1.432010
      py      :     1.328379

  2 O s       :     4.003991  s :     4.003991
      pz      :     1.705676  p :     4.483625
      px      :     1.424097
      py      :     1.353853



                     *******************************
                     * LOEWDIN POPULATION ANALYSIS *
                     *******************************

----------------------
LOEWDIN ATOMIC CHARGES
----------------------
   0 S :    0.990134
   1 O :   -0.494247
   2 O :   -0.495887

-------------------------------
LOEWDIN REDUCED ORBITAL CHARGES
-------------------------------
  0 S s       :     5.717487  s :     5.717487
      pz      :     3.257577  p :     9.292379
      px      :     3.128642
      py      :     2.906160

  1 O s       :     3.813462  s :     3.813462
      pz      :     1.774500  p :     4.680785
      px      :     1.439568
      py      :     1.466717

  2 O s       :     3.832702  s :     3.832702
      pz      :     1.759722  p :     4.663185
      px      :     1.431789
      py      :     1.471674



                      *****************************
                      * MAYER POPULATION ANALYSIS *
                      *****************************

  NA   - Mulliken gross atomic population
  ZA   - Total nuclear charge
  QA   - Mulliken gross atomic charge
  VA   - Mayer's total valence
  BVA  - Mayer's bonded valence
  FA   - Mayer's free valence

  ATOM       NA         ZA         QA         VA         BVA        FA
  0 S     15.0344    16.0000     0.9656     2.8971     2.8971     0.0000
  1 O      8.4780     8.0000    -0.4780     1.8353     1.8353     0.0000
  2 O      8.4876     8.0000    -0.4876     1.8371     1.8371    -0.0000

  Mayer bond orders larger than 0.100000
B(  0-S ,  1-O ) :   1.4477 B(  0-S ,  2-O ) :   1.4494 B(  1-O ,  2-O ) :   0.3877 


-------
TIMINGS
-------

Total SCF time: 0 days 0 hours 0 min 3 sec 

Total time                  ....       3.425 sec
Sum of individual times     ....       3.350 sec  ( 97.8%)

SCF preparation             ....       0.090 sec  (  2.6%)
Fock matrix formation       ....       3.241 sec  ( 94.6%)
  Startup                   ....       0.002 sec  (  0.1% of F)
  Split-RI-J                ....       0.236 sec  (  7.3% of F)
  Chain of spheres X        ....       2.150 sec  ( 66.4% of F)
  XC integration            ....       0.835 sec  ( 25.8% of F)
    XC Preparation          ....       0.000 sec  (  0.0% of XC)
    Basis function eval.    ....       0.388 sec  ( 46.5% of XC)
    Density eval.           ....       0.088 sec  ( 10.5% of XC)
    XC-Functional eval.     ....       0.230 sec  ( 27.6% of XC)
    XC-Potential eval.      ....       0.064 sec  (  7.6% of XC)
Diagonalization             ....       0.000 sec  (  0.0%)
Density matrix formation    ....       0.005 sec  (  0.2%)
Total Energy calculation    ....       0.001 sec  (  0.0%)
Population analysis         ....       0.002 sec  (  0.1%)
Orbital Transformation      ....       0.001 sec  (  0.0%)
Orbital Orthonormalization  ....       0.000 sec  (  0.0%)
DIIS solution               ....       0.008 sec  (  0.2%)
SOSCF solution              ....       0.003 sec  (  0.1%)
Finished LeanSCF after   3.4 sec

Maximum memory used throughout the entire LEANSCF-calculation: 5.8 MB

------------------------------------------------------------------------------
                         ORCA PROPERTY INTEGRAL CALCULATIONS
------------------------------------------------------------------------------

GBWName                                   ... ORCA.gbw
Number of atoms                           ...      3
Number of basis functions                 ...     31
Max core memory                           ...   1000 MB

Dipole integrals                          ... YES
Quadrupole integrals                      ...  NO
Linear momentum integrals                 ... YES
Angular momentum integrals                ... YES
Higher moments length integrals           ...  NO
Higher moments velocity integrals         ...  NO
Kinetic energy integrals                  ...  NO
GIAO right hand sides                     ...  NO
GIAO dipole derivative integrals          ...  NO
SOC integrals                             ... YES(ZORA)
EPR diamagnetic integrals (GIAO)          ...  NO
EPR gauge integrals                       ...  NO
Field gradient integrals                  ...  NO (   0 nuclei)
Spin-dipole/Fermi contact integrals       ...  NO (   0 nuclei)
Contact density integrals                 ...  NO (   0 nuclei)
Nucleus-orbit integrals                   ...  NO (   0 nuclei)
Geometric perturbations                   ...  NO (   3 nuclei)

Note: picture-change corrections are only included
      for the integrals annotated with "YES(ZORA)"!

Choice of electric origin   ... Center of mass
Position of electric origin ... (  0.0000, -0.0000,  0.7552) 
Choice of magnetic origin   ... GIAO
Position of magnetic origin ... (  0.0000,  0.0000,  0.0000) 

Calculating integrals                     ... Electric Dipole (Length)     done (  0.0 sec)
Calculating integrals                     ... Linear Momentum              done (  0.0 sec)
Calculating integrals                     ... Angular Momentum  (ElOri)    done (  0.0 sec)
Calculating integrals                     ... Spin-Orbit Coupling
  Spin-orbit operator                     ... Spin-Orbit Mean-Field (SOMF)
      1-El-Flag                           ...  1 ON
      Coulomb-Flag                        ...  3 ON (Via RI)
      Exchange-Flag                       ...  3 ON (AMFI type)
      DFT-Correlation Flag                ...  0 OFF
      Max-Center                          ...  4   
      Relativistic Picture Change         ... ON  (ZORA)     
  RI-J SOMF                               ... done (  0.2 sec)
  One-electron part                       ... done (  0.0 sec)
  Two-electron DoJ,X=0,1 MaxCenter=1      ... done (  0.2 sec)
  ZORA correction                         ... done (  0.1 sec)
  SOC integrals done (  0.5 sec)

Property integrals calculated in   0.5 sec

Maximum memory used throughout the entire PROPINT-calculation: 5.4 MB
------------------------------------------------------------------------------
                        ORCA TD-DFT/TDA CALCULATION
------------------------------------------------------------------------------

Input orbitals are from        ... ORCA.gbw
CI-vector output               ... ORCA.cis
Solver                         ... FN-2001
Tamm-Dancoff approximation     ... operative
CIS-Integral strategy          ... AO-integrals
Integral handling              ... AO integral Direct
Max. core memory used          ... 1000 MB
Reference state                ... RHF
Generation of triplets         ... on
Follow IRoot                   ... off
Number of operators            ... 1
Orbital ranges used for CIS calculation:
 Operator 0:  Orbitals   7... 15  to  16... 30
XAS localization array:
 Operator 0:  Orbitals  -1... -1

-------------------
XC-INTEGRATION GRID
-------------------

General Integration Accuracy     IntAcc      ... 3.467
Radial Grid Type                 RadialGrid  ... OptM3 with GC (2021)
Angular Grid (max. ang.)         AngularGrid ... 1 (Lebedev-50)
Angular grid pruning method      GridPruning ... 4 (adaptive)
Weight generation scheme         WeightScheme... mBecke (2022)
Basis function cutoff            BFCut       ... 1.0000e-11
Integration weight cutoff        WCut        ... 1.0000e-14
Partially contracted basis set               ... off
Rotationally invariant grid construction     ... off
Angular grids for H and He will be reduced by one unit

Total number of grid points                  ...     3885
Total number of batches                      ...       62
Average number of points per batch           ...       62
Average number of grid points per atom       ...     1295

---------------------
COSX-INTEGRATION GRID
---------------------

General Integration Accuracy     IntAcc      ... 3.067
Radial Grid Type                 RadialGrid  ... OptM3 with GC (2021)
Angular Grid (max. ang.)         AngularGrid ... 1 (Lebedev-50)
Angular grid pruning method      GridPruning ... 4 (adaptive)
Weight generation scheme         WeightScheme... mBecke (2022)
Basis function cutoff            BFCut       ... 1.0000e-11
Integration weight cutoff        WCut        ... 1.0000e-14
Partially contracted basis set               ... on
Rotationally invariant grid construction     ... off
Angular grids for H and He will be reduced by one unit

Total number of grid points                  ...     2132
Total number of batches                      ...       18
Average number of points per batch           ...      118
Average number of grid points per atom       ...      711

---------------
TD-DFT XC SETUP
---------------

DFT calculation                         ... on
Name of the grid file                   ... ORCA.grid_cis.tmp
RI-approximation                        ... on
Aux-basis dimension                     ... 0
Exchange functional (TD-DFT)            ... B88
   X-Alpha parameter    XAlpha (TD-DFT) ...  0.666667
   Becke's b parameter  XBeta (TD-DFT)  ...  0.004200
Correlation functional (TD-DFT)         ... LYP
 LDA part of GGA corr.  LDAOpt (TD-DFT) ... VWN-5
Hybrid DFT                              ... on
   Exchange mixing (TD-DFT)             ...  0.200
   GGA exch. scaling (TD-DFT)           ...  0.720
   GGA corr. scaling (TD-DFT)           ...  0.810

Building densities             ... done
Calculating rho(r) on the grid ... done
Building xc-kernel on the grid ... done
                    *** TD-DFT CALCULATION INITIALIZED ***

Entering Solve()
   ... Initialized Buffers
------------------------
DAVIDSON-DIAGONALIZATION
------------------------

Dimension of the eigenvalue problem            ...    135
Number of roots to be determined               ...      5
Maximum size of the expansion space            ...     50
Maximum number of iterations                   ...    100
Convergence tolerance for the residual         ...    2.500e-07
Convergence tolerance for the energies         ...    2.500e-07
Orthogonality tolerance                        ...    1.000e-14
Level Shift                                    ...    0.000e+00
Constructing the preconditioner                ... o.k.
Building the initial guess                     ... o.k.
Number of trial vectors determined             ...     50


                       ****Iteration    0****

Building the sigma vectors                     ... o.k.
Building the Hamiltonian                       ... o.k.
Diagonalizing the Hamiltonian                  ... o.k.
   Size of expansion space: 15
   lowest eigenvalues of A:
    E[ 0] =     0.1004788498 (change=   0.1004788498)  2.734 eV
    E[ 1] =     0.1142355269 (change=   0.1142355269)  3.108 eV
    E[ 2] =     0.2106938334 (change=   0.2106938334)  5.733 eV
    E[ 3] =     0.2632803469 (change=   0.2632803469)  7.164 eV
    E[ 4] =     0.2699298455 (change=   0.2699298455)  7.345 eV
   Lowest Energy          :     0.100478849845
   Maximum Energy change  :     0.269929845486 (vector 4)
   Maximum residual norm  :     0.006821957327
   Repeating orthogonalization (< 0| 3>=9.073760e-06)
   Repeating orthogonalization (< 1|15>=2.812484e-01)
   Repeating orthogonalization (< 2| 2>=1.070337e-04)
   Repeating orthogonalization (< 3|15>=5.106252e-01)
   Repeating orthogonalization (< 4|16>=2.854179e-01)
Storing the current CI vectors                 ... o.k.

                       ****Iteration    1****

Building the sigma vectors                     ... o.k.
Building the Hamiltonian                       ... o.k.
Diagonalizing the Hamiltonian                  ... o.k.
   Size of expansion space: 20
   lowest eigenvalues of A:
    E[ 0] =     0.0995575442 (change=  -0.0009213056)  2.709 eV
    E[ 1] =     0.1137993277 (change=  -0.0004361992)  3.097 eV
    E[ 2] =     0.2040765846 (change=  -0.0066172488)  5.553 eV
    E[ 3] =     0.2623464075 (change=  -0.0009339395)  7.139 eV
    E[ 4] =     0.2679671791 (change=  -0.0019626664)  7.292 eV
   Lowest Energy          :     0.099557544240
   Maximum Energy change  :     0.006617248811 (vector 2)
   Maximum residual norm  :     0.000089549718
   Repeating orthogonalization (< 0|18>=1.231158e-01)
   Repeating orthogonalization (< 1|20>=5.744932e-01)
   Repeating orthogonalization (< 2|17>=2.849808e-01)
   Repeating orthogonalization (< 3|20>=5.211033e-01)
   Repeating orthogonalization (< 4|19>=1.163918e-01)
Storing the current CI vectors                 ... o.k.

                       ****Iteration    2****

Building the sigma vectors                     ... o.k.
Building the Hamiltonian                       ... o.k.
Diagonalizing the Hamiltonian                  ... o.k.
   Size of expansion space: 25
[...]
Z-vector equation           ....       4.596 sec  ( 23.4%)
Densities                   ....       0.000 sec  (  0.0%)
One electron gradient       ....       0.044 sec  (  0.2%)
Two electron gradient       ....       0.000 sec  (  0.0%)
RI-J Coulomb gradient       ....       1.194 sec  (  6.1%)
COSX gradient               ....       2.243 sec  ( 11.4%)
XC gradient                 ....       3.177 sec  ( 16.2%)
ZORA gradient               ....       0.000 sec  (  0.0%)

Maximum memory used throughout the entire CIS-calculation: 29.1 MB
=> NOW LEAVING ORCA_CIS


-------------------------------------------------------------------------------
                          DFT DISPERSION CORRECTION                            
                                                                               
                              DFTD3 V3.1  Rev 1                                
                          USING Becke-Johnson damping                          
-------------------------------------------------------------------------------
The B3LYP functional is recognized
Active option DFTDOPT                   ...         4   

molecular C6(AA) [au] = 331.243651 


            DFT-D V3
 parameters
 s6 scaling factor         :     1.0000 
 a1 scaling factor         :     0.3981 
 s8 scaling factor         :     1.9889 
 a2 scaling factor         :     4.4211 
 ad hoc parameters k1-k3   :    16.0000     1.3333    -4.0000 

 Edisp/kcal,au: -1.579007628924  -0.002516308559 
 E6   /kcal   :  -0.666166783 
 E8   /kcal   :  -0.912840846 
 % E8         :  57.811047193 

-------------------------   ----------------
Dispersion correction           -0.002516309
-------------------------   ----------------


-------------------------   --------------------
FINAL SINGLE POINT ENERGY      -550.096413096520
-------------------------   --------------------


------------------------------------------------------------------------------
                              ORCA PROPERTY CALCULATIONS
------------------------------------------------------------------------------

GBWName                                 ... ORCA.gbw
Number of atoms                         ...      3
Number of basis functions               ...     31
Max core memory                         ...   1000 MB

Electric properties:
Dipole moment                           ... YES
Quadrupole moment                       ...  NO
Static polarizability (Dipole/Dipole)   ...  NO
Static polarizability (Dipole/Quad.)    ...  NO
Static polarizability (Quad./Quad.)     ...  NO
Static polarizability (Velocity)        ...  NO

Atomic electric properties:
Dipole moment                           ...  NO
Quadrupole moment                       ...  NO
Static polarizability                   ...  NO

Choice of electric origin               ... Center of mass
Position of electric origin             ...     0.000000    -0.000000     0.755159

General magnetic properties:
Magnetizability                         ...  NO

EPR properties:
g-Tensor (aka g-matrix)                 ...  NO
Zero-Field splitting spin-orbit         ...  NO
Zero-field splitting spin-spin          ...  NO
Hyperfine couplings                     ...  NO (   0 nuclei)
Quadrupole couplings                    ...  NO (   0 nuclei)
Contact density                         ...  NO (   0 nuclei)

NMR properties:
Chemical shifts                         ...  NO (   0 nuclei)
Spin-rotation constants                 ...  NO (   0 nuclei)
Spin-spin couplings                     ...  NO (   0 nuclei,    0 pairs)

Choice of magnetic origin               ... GIAO
Position of magnetic origin             ...     0.000000     0.000000     0.000000

Properties with geometric perturbations:
SCF Hessian                             ...  NO
IR spectrum                             ...  NO
VCD spectrum                            ...  NO
X-ray spectroscopy properties:
SCF XES/XAS/RIXS spectra                ...  NO

Note: picture-change corrections are only included
      for the properties annotated with "YES(ZORA)"!


-------------
DIPOLE MOMENT
-------------

Method             : SCF
Type of density    : Electron Density
Multiplicity       :   1
Irrep              :   0
Energy             :  -550.1623297482126418 Eh
Relativity type    : 
Basis              : AO
                                X                 Y                 Z
Electronic contribution:      0.000000006       0.034873989      -0.925533572
Nuclear contribution   :      0.000000000       0.000000000       0.023411387
                        -----------------------------------------
Total Dipole Moment    :      0.000000006       0.034873989      -0.902122185
                        -----------------------------------------
Magnitude (a.u.)       :      0.902796008
Magnitude (Debye)      :      2.294725086



--------------------
Rotational spectrum 
--------------------
 
Rotational constants in cm-1:             1.647766             0.311169             0.261741 
Rotational constants in MHz :         49398.787065          9328.599358          7846.790422 

Dipole components along the rotational axes: 
x,y,z [a.u.] :    -0.077580    -0.899457     0.000000 
x,y,z [Debye]:    -0.197192    -2.286237     0.000000 

 

-------------
DIPOLE MOMENT
-------------

Method             : TDA/CIS
Type of density    : Electron Density
Level              : Relaxed density
State              :   1
Multiplicity       :   1
Irrep              :   0
Energy             :     0.0000000000000000 Eh
Relativity type    : 
Basis              : AO
                                X                 Y                 Z
Electronic contribution:     -0.000000003      -0.059508297      -0.593591987
Nuclear contribution   :      0.000000000       0.000000000       0.023411387
                        -----------------------------------------
Total Dipole Moment    :     -0.000000003      -0.059508297      -0.570180600
                        -----------------------------------------
Magnitude (a.u.)       :      0.573277554
Magnitude (Debye)      :      1.457155740



--------------------
Rotational spectrum 
--------------------
 
Rotational constants in cm-1:             1.647766             0.311169             0.261741 
Rotational constants in MHz :         49398.787065          9328.599358          7846.790422 

Dipole components along the rotational axes: 
x,y,z [a.u.] :     0.032425    -0.572360    -0.000000 
x,y,z [Debye]:     0.082417    -1.454823    -0.000000 

 

-------------
DIPOLE MOMENT
-------------

Method             : TDA/CIS
Type of density    : Electron Density
Level              : Relaxed density
State              :   2
Multiplicity       :   1
Irrep              :   0
Energy             :     0.0000000000000000 Eh
Relativity type    : 
Basis              : AO
                                X                 Y                 Z
Electronic contribution:     -0.000000004       0.069708392      -0.725854759
Nuclear contribution   :      0.000000000       0.000000000       0.023411387
                        -----------------------------------------
Total Dipole Moment    :     -0.000000004       0.069708392      -0.702443371
                        -----------------------------------------
Magnitude (a.u.)       :      0.705893724
Magnitude (Debye)      :      1.794239257



--------------------
Rotational spectrum 
--------------------
 
Rotational constants in cm-1:             1.647766             0.311169             0.261741 
Rotational constants in MHz :         49398.787065          9328.599358          7846.790422 

Dipole components along the rotational axes: 
x,y,z [a.u.] :    -0.102914    -0.698351    -0.000000 
x,y,z [Debye]:    -0.261586    -1.775068    -0.000000 

 

-------------
DIPOLE MOMENT
-------------

Method             : TDA/CIS
Type of density    : Electron Density
Level              : Relaxed density
State              :   1
Multiplicity       :   3
Irrep              :   0
Energy             :     0.0000000000000000 Eh
Relativity type    : 
Basis              : AO
                                X                 Y                 Z
Electronic contribution:     -0.000000033      -0.039696867      -0.652357844
Nuclear contribution   :      0.000000000       0.000000000       0.023411387
                        -----------------------------------------
Total Dipole Moment    :     -0.000000033      -0.039696867      -0.628946457
                        -----------------------------------------
Magnitude (a.u.)       :      0.630197975
Magnitude (Debye)      :      1.601835951



--------------------
Rotational spectrum 
--------------------
 
Rotational constants in cm-1:             1.647766             0.311169             0.261741 
Rotational constants in MHz :         49398.787065          9328.599358          7846.790422 

Dipole components along the rotational axes: 
x,y,z [a.u.] :     0.009851    -0.630121    -0.000000 
x,y,z [Debye]:     0.025040    -1.601640    -0.000000 

 

-------------
DIPOLE MOMENT
-------------

Method             : TDA/CIS
Type of density    : Electron Density
Level              : Relaxed density
State              :   2
Multiplicity       :   3
Irrep              :   0
Energy             :     0.0000000000000000 Eh
Relativity type    : 
Basis              : AO
                                X                 Y                 Z
Electronic contribution:      0.000000111      -0.027033051      -0.487468325
Nuclear contribution   :      0.000000000       0.000000000       0.023411387
                        -----------------------------------------
Total Dipole Moment    :      0.000000111      -0.027033051      -0.464056937
                        -----------------------------------------
Magnitude (a.u.)       :      0.464843658
Magnitude (Debye)      :      1.181538681



--------------------
Rotational spectrum 
--------------------
 
Rotational constants in cm-1:             1.647766             0.311169             0.261741 
Rotational constants in MHz :         49398.787065          9328.599358          7846.790422 

Dipole components along the rotational axes: 
x,y,z [a.u.] :     0.005015    -0.464817     0.000000 
x,y,z [Debye]:     0.012746    -1.181470     0.000000 

 

-------------
DIPOLE MOMENT
-------------

Method             : TDA/CIS
Type of density    : Electron Density
Level              : Relaxed density
State              :   3
Multiplicity       :   3
Irrep              :   0
Energy             :     0.0000000000000000 Eh
Relativity type    : 
Basis              : AO
                                X                 Y                 Z
Electronic contribution:     -0.000000083       0.020564307      -0.697121150
Nuclear contribution   :      0.000000000       0.000000000       0.023411387
                        -----------------------------------------
Total Dipole Moment    :     -0.000000083       0.020564307      -0.673709762
                        -----------------------------------------
Magnitude (a.u.)       :      0.674023542
Magnitude (Debye)      :      1.713231690



--------------------
Rotational spectrum 
--------------------
 
Rotational constants in cm-1:             1.647766             0.311169             0.261741 
Rotational constants in MHz :         49398.787065          9328.599358          7846.790422 

Dipole components along the rotational axes: 
x,y,z [a.u.] :    -0.052463    -0.671979    -0.000000 
x,y,z [Debye]:    -0.133351    -1.708034    -0.000000 

 

-------------
DIPOLE MOMENT
-------------

Method             : TDA/CIS
Type of density    : Electron Density
Level              : Relaxed density
State              :   4
Multiplicity       :   3
Irrep              :   0
Energy             :     0.0000000000000000 Eh
Relativity type    : 
Basis              : AO
                                X                 Y                 Z
Electronic contribution:     -0.000000230       0.112282672      -0.946609054
Nuclear contribution   :      0.000000000       0.000000000       0.023411387
                        -----------------------------------------
Total Dipole Moment    :     -0.000000230       0.112282672      -0.923197666
                        -----------------------------------------
Magnitude (a.u.)       :      0.930000715
Magnitude (Debye)      :      2.363873957



--------------------
Rotational spectrum 
--------------------
 
Rotational constants in cm-1:             1.647766             0.311169             0.261741 
Rotational constants in MHz :         49398.787065          9328.599358          7846.790422 

Dipole components along the rotational axes: 
x,y,z [a.u.] :    -0.155900    -0.916841    -0.000000 
x,y,z [Debye]:    -0.396266    -2.330423    -0.000001 

 

-------------
DIPOLE MOMENT
-------------

Method             : TDA/CIS
Type of density    : Electron Density
Level              : Relaxed density
State              :   5
Multiplicity       :   3
Irrep              :   0
Energy             :     0.0000000000000000 Eh
Relativity type    : 
Basis              : AO
                                X                 Y                 Z
Electronic contribution:      0.000000125       0.218172058      -0.574338645
Nuclear contribution   :      0.000000000       0.000000000       0.023411387
                        -----------------------------------------
Total Dipole Moment    :      0.000000125       0.218172058      -0.550927258
                        -----------------------------------------
Magnitude (a.u.)       :      0.592553702
Magnitude (Debye)      :      1.506151815



--------------------
Rotational spectrum 
--------------------
 
Rotational constants in cm-1:             1.647766             0.311169             0.261741 
Rotational constants in MHz :         49398.787065          9328.599358          7846.790422 

Dipole components along the rotational axes: 
x,y,z [a.u.] :    -0.244031    -0.539971     0.000000 
x,y,z [Debye]:    -0.620278    -1.372497     0.000000 

 

Dipole moment calculation done in   0.1 sec 

Maximum memory used throughout the entire PROP-calculation: 4.7 MB

--------------------------------
SUGGESTED CITATIONS FOR THIS RUN
--------------------------------

Below you find a list of papers that are relevant to this ORCA run
We neither can nor want to force you to cite these papers, but we appreciate if you do
You receive ORCA, which is the product of decades of hard work by many enthusiastic individuals, for free
The only thing we kindly ask in return is that you cite our papers,
We deeply appreciate it, if you show your appreciation for ORCA by not just citing the generic ORCA reference.

Please note that relegating all ORCA citations to the supporting information does *not* help us.
SI sections are not indexed - citations you put there will not count into any citation statistics
But we need these citations in order to attract the funding resources that allow us to do what we are doing

Therefore, if you are a happy ORCA user, please consider citing a few of the papers listed below in the main body of your paper

In addition to the list printed below, the program has created the file ORCA.bibtex that contains the list in bibtex format
You can import this file easily into all common literature databanks and citation aid programs


List of essential papers. We consider these as the minimum necessary citations

  1. Neese,F.
     Software update: the ORCA program system, version 5.0
     WIRES Comput. Molec. Sci., 2022 12(1)e1606
     doi.org/10.1002/wcms.1606

List of papers to cite with high priority. The work reported in these papers was absolutely
necessary for this run to complete.
Our perspective: the developers of density functionals and basis sets usually get cited in chemistry papers
Good! But without the algorithms to do something with them, the functionals or basis sets would not do anything.
Hence, in our opinion, the algorithm design and method developments papers are equally worthy of getting cited

  1. Neese,F.; Olbrich,G.
     Efficient use of the resolution of the identity approximation in time-dependent density functional calculations with hybrid density functionals
     Chem. Phys. Lett., 2002 362 170-178
     doi.org/10.1016/s0009-2614(02)01053-9
  2. Neese,F.
     An improvement of the resolution of the identity approximation for the formation of the Coulomb matrix
     J. Comp. Chem., 2003 24(14)1740-1747
     doi.org/10.1002/jcc.10318
  3. Neese,F.; Wennmohs,F.; Hansen,A.; Becker,U.
     Efficient, approximate and parallel Hartree-Fock and hybrid DFT calculations. A 'chain-of-spheres' algorithm for the Hartree-Fock exchange
     Chem. Phys., 2009 356(1-3)98-109
     doi.org/10.1016/j.chemphys.2008.10.036
  4. Petrenko,T.; Kossmann,S.; Neese,F.
     Efficient time-dependent density functional theory approximations for hybrid density functionals: Analytical gradients and parallelization
     J. Chem. Phys., 2011 134 054116
     doi.org/10.1063/1.3533441
  5. Helmich-Paris,B.; de Souza,B.; Neese,F.; Izsák,R.
     An improved chain of spheres for exchange algorithm
     J. Chem. Phys., 2021 155 104109
     doi.org/doi: 10.1063/5.0058766.
  6. Neese,F.
     The SHARK Integral Generation and Digestion System
     J. Comp. Chem., 2022  1-16
     doi.org/10.1002/jcc.26942
  7. Grimme,S.; Antony,J.; Ehrlich,S.; Krieg,H.
     A consistent and accurate ab initio parametrization of density functional dispersion correction (DFT-D) for the 94 elements H-Pu
     J. Chem. Phys., 2010 132 154104-XXXX
     doi.org/10.1063/1.3382344
  8. Grimme,S.; Ehrlich,S.; Goerigk,L.
     Effect of the damping function in dispersion corrected density functional theory
     J. Comput. Chem., 2011 32(7)1456-1465
     doi.org/10.1002/jcc.21759

List of suggested additional citations. These are papers that are important in the 'surrounding' of 
of this run, or papers that preceded the highly important papers. If you like your results we are grateful for a citation.

  1. Izsak,R.; Neese,F.
     An overlap fitted chain of spheres exchange method
     J. Chem. Phys., 2011 135 144105
     doi.org/10.1063/1.3646921
  2. Izsak,R.; Hansen,A.; Neese,F.
     The resolution of identity and chain of spheres approximations for the LPNO-CCSD singles Fock term
     Molec. Phys., 2012 110 2413-2417
     doi.org/10.1080/00268976.2012.687466
  3. Neese,F.
     The ORCA program system
     WIRES Comput. Molec. Sci., 2012 2(1)73-78
     doi.org/10.1002/wcms.81
  4. Izsak,R.; Neese,F.; Klopper,W.
     Robust fitting techniques in the chain of spheres approximation to the Fock exchange: The role of the complementary space
     J. Chem. Phys., 2013 139 
     doi.org/10.1063/1.4819264
  5. Neese,F.
     Software update: the ORCA program system, version 4.0
     WIRES Comput. Molec. Sci., 2018 8(1)1-6
     doi.org/10.1002/wcms.1327
  6. Neese,F.; Wennmohs,F.; Becker,U.; Riplinger,C.
     The ORCA quantum chemistry program package
     J. Chem. Phys., 2020 152 Art. No. L224108
     doi.org/10.1063/5.0004608

List of optional additional citations

  1. Neese,F.
     Approximate second-order SCF convergence for spin unrestricted wavefunctions
     Chem. Phys. Lett., 2000 325(1-3)93-98
     doi.org/10.1016/s0009-2614(00)00662-x

Timings for individual modules:

Sum of individual times          ...       25.989 sec (=   0.433 min)
Startup calculation              ...        0.322 sec (=   0.005 min)   1.2 %
Relativistic integrals           ...        0.047 sec (=   0.001 min)   0.2 %
SCF iterations                   ...        3.610 sec (=   0.060 min)  13.9 %
Property integrals               ...        0.620 sec (=   0.010 min)   2.4 %
Property calculations            ...        0.185 sec (=   0.003 min)   0.7 %
CIS module                       ...       21.205 sec (=   0.353 min)  81.6 %
                             ****ORCA TERMINATED NORMALLY****
TOTAL RUN TIME: 0 days 0 hours 0 minutes 26 seconds 180 msec
