   This run of MOLCAS is using the pymolcas driver

                             OPE
                             OPE          NMOL  CASOP  ENMOLC A   SO
                 OPE        NMOLC        AS  OP EN  MO LC     AS  OP
                OPENM       OL CA        SO  PE NM  OL CA     SOP EN
                OP EN      MO   LC       AS  OP ENMOL  CASO   PENMOL
                OP  EN     MO   LC       AS  OP EN     MO     LC ASO
               OP   E  NMOL  C  AS       OP  EN MO     LC     AS  OP
               OP  E   NMO   LC AS        OPEN  MO     LCASOP EN   M
               O  PEN   MO  LCA  SO
            OPE   NMO   L   CAS    OP
        OPENMOL  CASOP     ENMOL   CASOPE
     OPENMOLCA   SOPENMOLCASOPEN   MOLCASOPE
    OPENMOLCAS   OP           EN   MOL    CAS
    OPENMOLCAS       OP  ENM        O     LCA
    OPENMOLCAS    OPEN  MOLCASO     P  E  NMO
    OPENMOLCAS     OP               E  N  MOL
    OPENMOLCA   SO           PENM   O  L  CAS    OPEN    MO    LCAS
    OPENMOLCA   SOP           ENM   O  L  CAS   OP  EN  MOLC  AS   O
    OPENMOLCA   SOPE           NM      O  LCA   S      OP  EN MO
    OPENMOLC                AS         O  PEN   M      OL  CA  SOPE
    OPENMO        LCASOPE  NMOL        C  ASO   P      ENMOLC     AS
    OPE     NMO      LCA  SO     P     E   NM   OL  CA SO  PE N   MO
          OPENMOLCA            SOPE   NMO        LCAS  O    P  ENMO
     OPENMOLCASOPENMOLCASOPENMOLCASOPENMOLCA
        OPENMOLCASOPENMOLCASOPENMOLCASOPE
            OPENMOLCASOPENMOLCASOPENM
               OPENMOLCASOPENMOLCA        version: v23.10
                   OPENMOLCASO
                       OPE                tag:

 OpenMolcas is free software; you can redistribute it and/or modify it
 under the terms of the GNU Lesser General Public License version 2.1.
 OpenMolcas is distributed in the hope that it will be useful, but it
 is provided "as is" and without any express or implied warranties.
 For more details see the full text of the license in the file
 LICENSE or in <http://www.gnu.org/licenses/>.

                 Copyright (C) The OpenMolcas Authors
           For the author list and the recommended citation,
                   consult the file CONTRIBUTORS.md

           *************************************************
           * pymolcas version py2.25                       *
           *   build 2b27fa14244bdc32cb1957e6230cd793      *
           *   (after the EMIL interpreter by V. Veryazov) *
           *************************************************

configuration info
------------------
Host name: manganese.itc.univie.ac.at (Linux)
C Compiler ID: Clang
C flags: -std=gnu99
Fortran Compiler ID: Intel
Fortran flags: -fpp -i8 -heap-arrays
Definitions: _MOLCAS_;_I8_;_LINUX_
Parallel: OFF (GA=OFF)


   ---------------------------------------------------------------------------
  |
  |           Project: MOLCAS
  |    Submitted from: /public/manganese/scratch/tmp/sascha.925337/WORK/master
  |      Scratch area: /public/manganese/scratch/tmp/sascha.925337/WORK/master
  |   Save outputs to: WORKDIR
  |            Molcas: /usr/license/openmolcas/v23.10
  |
  | Scratch area is NOT empty
  |
  |        MOLCASMEM = 10000
  |    MOLCAS_DRIVER = /usr/license/openmolcas/v23.10/pymolcas
  |    MOLCAS_NPROCS = 1
  |    MOLCAS_SOURCE = /usr/license/openmolcas/v23.10
  | MOLCAS_STRUCTURE = 0
  |
   ---------------------------------------------------------------------------

++ ---------   Input file   ---------

&GATEWAY
COORD=MOLCAS.xyz
GROUP=NOSYM
BASIS=cc-pvdz
AMFI
angmom
0 0 0
BASLIB
/user/sascha/development/eci/sharc_main/examples/SHARC_MOLCAS/basisset

RICD
CDTHreshold=0.0001

&SEWARD

>>> COPY /public/manganese/scratch/tmp/sascha.925337/SAVE/MOLCAS.1.JobIph.0 JOBOLD

&RASSCF
SPIN=1
NACTEL=8 0 0
INACTIVE=5
RAS2=6
ITERATIONS=200,100
CIROOT=6 6 1
ORBLISTING=NOTHING
PRWF=0.1
THRS=0.000000010000 0.000100000000 0.000100000000
JOBIPH

>>> COPY MOLCAS.rasscf.molden MOLCAS.1.molden

>>> COPY MOLCAS.JobIph MOLCAS.1.JobIph

>>> COPY /public/manganese/scratch/tmp/sascha.925337/SAVE/MOLCAS.4.JobIph.0 JOBOLD

&RASSCF
SPIN=4
NACTEL=7 0 0
INACTIVE=5
RAS2=6
ITERATIONS=200,100
CIROOT=4 4 1
ORBLISTING=NOTHING
PRWF=0.1
THRS=0.000000010000 0.000100000000 0.000100000000
JOBIPH

>>> COPY MOLCAS.rasscf.molden MOLCAS.4.molden

>>> COPY MOLCAS.JobIph MOLCAS.4.JobIph

>>> COPY /public/manganese/scratch/tmp/sascha.925337/SAVE/MOLCAS.1.JobIph.0 JOB001

>>> COPY MOLCAS.1.JobIph JOB002

&RASSI
NROFJOBIPHS
2 1 1
1
1
MEIN
OVERLAPS

>>> COPY MOLCAS.rassi.h5 MOLCAS.rassi.ovlp.1.h5

>>> COPY MOLCAS.1.JobIph JOB001

&RASSI
NROFJOBIPHS
1 1
1
MEIN

>>> COPY MOLCAS.rassi.h5 MOLCAS.rassi.1.h5

>>> COPY /public/manganese/scratch/tmp/sascha.925337/SAVE/MOLCAS.4.JobIph.0 JOB001

>>> COPY MOLCAS.4.JobIph JOB002

&RASSI
NROFJOBIPHS
2 1 1
1
1
MEIN
OVERLAPS

>>> COPY MOLCAS.rassi.h5 MOLCAS.rassi.ovlp.4.h5

>>> COPY MOLCAS.4.JobIph JOB001

&RASSI
NROFJOBIPHS
1 1
1
MEIN

>>> COPY MOLCAS.rassi.h5 MOLCAS.rassi.4.h5

>>> COPY MOLCAS.1.JobIph JOB001

>>> COPY MOLCAS.4.JobIph JOB002

&RASSI
NROFJOBIPHS
2 1 1
1
1
MEIN
SPINORBIT
SOCOUPLING=0.0d0
EJOB

-- ----------------------------------

--- Start Module: gateway at Fri Mar 22 11:48:09 2024 ---
 
()()()()()()()()()()()()()()()()()()()()()()()()()()()()()()()()()()()()()()()()()()()()()()()()()()

                                              &GATEWAY

                                   only a single process is used
                       available to each process: 10 GB of memory, 1 thread?
                                            pid: 1867922
()()()()()()()()()()()()()()()()()()()()()()()()()()()()()()()()()()()()()()()()()()()()()()()()()()
 
 
 
 Basis Set     1 Label: S.CC-PVDZ
 Basis set is read from library:/user/sascha/development/eci/sharc_main/examples/SHARC_MOLCAS/basisset 
 
 
 Basis Set     2 Label: H.CC-PVDZ
 Basis set is read from library:/user/sascha/development/eci/sharc_main/examples/SHARC_MOLCAS/basisset 
 
++    Symmetry information:
      ---------------------
 
                    Character Table for C1 
 
                             E  
                    a        1  x, y, xy, Rz, z, xz, Ry, yz, Rx, I
--
 
 
++    Basis set information:
      ----------------------
 
 
      Basis set label: S.CC-PVDZ.........
 
      Electronic valence basis set:
      ------------------
      Associated Effective Charge  16.000000 au
      Associated Actual Charge     16.000000 au
      Nuclear Model: Point charge
 
      Shell  nPrim  nBasis  Cartesian Spherical Contaminant
         s      12       4        X                  
         p       8       3        X                  
         d       1       1                 X         
 
 
      Basis set label: H.CC-PVDZ.........
 
      Electronic valence basis set:
      ------------------
      Associated Effective Charge   1.000000 au
      Associated Actual Charge      1.000000 au
      Nuclear Model: Point charge
 
      Shell  nPrim  nBasis  Cartesian Spherical Contaminant
         s       4       2        X                  
         p       1       1        X                  
--
 
 
++    Molecular structure info:
      -------------------------
 
                    ************************************************ 
                    **** Cartesian Coordinates / Bohr, Angstrom **** 
                    ************************************************ 
 
     Center  Label                x              y              z                     x              y              z
        1      S1               0.000000       0.000000       0.001589              0.000000       0.000000       0.000841
        2      H2               0.000000       1.842103       2.235421              0.000000       0.974799       1.182934
        3      H3               0.000000      -1.842103       2.235421              0.000000      -0.974799       1.182934
 
                    *************************************** 
                    *    InterNuclear Distances / Bohr    * 
                    *************************************** 
 
               1 S1            2 H2            3 H3    
    1 S1       0.000000
    2 H2       2.895401        0.000000
    3 H3       2.895401        3.684206        0.000000
 
                    ******************************************* 
                    *    InterNuclear Distances / Angstrom    * 
                    ******************************************* 
 
               1 S1            2 H2            3 H3    
    1 S1       0.000000
    2 H2       1.532180        0.000000
    3 H3       1.532180        1.949598        0.000000
 
                    ************************************** 
                    *    Valence Bond Angles / Degree    * 
                    ************************************** 
                          Atom centers                 Phi
                      2 H2       1 S1       3 H3        79.02
--
 
 
            Nuclear Potential Energy             11.32343694 au
 
--- Stop Module: gateway at Fri Mar 22 11:48:10 2024 /rc=_RC_ALL_IS_WELL_ ---

--- Start Module: seward at Fri Mar 22 11:48:10 2024 ---
 
()()()()()()()()()()()()()()()()()()()()()()()()()()()()()()()()()()()()()()()()()()()()()()()()()()

                                              &SEWARD

                                   only a single process is used
                       available to each process: 10 GB of memory, 1 thread?
                                            pid: 1867925
()()()()()()()()()()()()()()()()()()()()()()()()()()()()()()()()()()()()()()()()()()()()()()()()()()
 
               SEWARD will generate:
                  Multipole Moment integrals up to order  2
                  Kinetic Energy integrals
                  Nuclear Attraction integrals (point charge)
                  One-Electron Hamiltonian integrals
                  Velocity integrals
                  Orbital angular momentum around ( 0.0000  0.0000  0.0000 )
                  Velocity quadrupole around ( 0.0000  0.0000  0.1341 )
                  Atomic mean-field integrals
                  RI decomposed two-electron repulsion integrals stored Cholesky style
                   - acCD auxiliary basis
                   - CD Threshold:   0.10E-03
 
                   Integrals are discarded if absolute value <: 0.10E-13
                   Integral cutoff threshold is set to       <: 0.10E-15
 
            Nuclear Potential Energy             11.32343694 au
 
 
      Basis set specifications :
      Symmetry species         a  
      Basis functions           28
 
 
      Input file to MOLDEN was generated!
 
--- Stop Module: seward at Fri Mar 22 11:48:10 2024 /rc=_RC_ALL_IS_WELL_ ---

>>> COPY /public/manganese/scratch/tmp/sascha.925337/SAVE/MOLCAS.1.JobIph.0 JOBOLD

*** symbolic link created: INPORB -> MOLCAS.GssOrb
--- Start Module: rasscf at Fri Mar 22 11:48:10 2024 ---
 
()()()()()()()()()()()()()()()()()()()()()()()()()()()()()()()()()()()()()()()()()()()()()()()()()()

                                              &RASSCF

                                   only a single process is used
                       available to each process: 10 GB of memory, 1 thread?
                                            pid: 1867928
()()()()()()()()()()()()()()()()()()()()()()()()()()()()()()()()()()()()()()()()()()()()()()()()()()
 
 
      Header of the ONEINT file:
      --------------------------
      
      Integrals generated by Gateway/Seward, Fri Mar 22 11:48:10 2024
 
 
      OrdInt status: non-squared
 
 
      Cartesian coordinates in Angstrom:
      -----------------------------------------------------
      No.  Label        X            Y            Z        
      -----------------------------------------------------
       1   S1         0.00000000   0.00000000   0.00084100
       2   H2         0.00000000   0.97479900   1.18293400
       3   H3         0.00000000  -0.97479900   1.18293400
      -----------------------------------------------------
      Nuclear repulsion energy =   11.32343694
 
++    Wave function specifications:
      -----------------------------
 
      Number of closed shell electrons          10
      Number of electrons in active shells       8
      Max number of holes in RAS1 space          0
      Max nr of electrons in RAS3 space          0
      Number of inactive orbitals                5
      Number of active orbitals                  6
      Number of secondary orbitals              17
      Spin quantum number                      0.0
      State symmetry                             1
--
 
++    Orbital specifications:
      -----------------------
 
      Symmetry species                           1
                                                 a
      Frozen orbitals                            0
      Inactive orbitals                          5
      Active orbitals                            6
      RAS1 orbitals                              0
      RAS2 orbitals                              6
      RAS3 orbitals                              0
      Secondary orbitals                        17
      Deleted orbitals                           0
      Number of basis functions                 28
--
 
++    CI expansion specifications:
      ----------------------------
 
      Number of CSFs                           105
      Number of determinants                   120
      Number of root(s) required                 6
      Root chosen for geometry opt.              6
      CI roots used                              1     2     3     4     5     6
      weights                                0.167 0.167 0.167 0.167 0.167 0.167
      highest root included in the CI            6
      max. size of the explicit Hamiltonian    105
--
 
++    Optimization specifications:
      ----------------------------
 
      RASSCF algorithm: LK RI/DF
      Maximum number of macro iterations       200
      Maximum number of SX iterations          100
      Threshold for RASSCF energy            0.100E-07
      Threshold for max MO rotation          0.100E-03
      Threshold for max BLB element          0.100E-03
      Level shift parameter                  0.500E+00
      Make Quasi-Newton update
--
 
      The MO-coefficients are taken from the file:
      JOBOLD
      Title:(No title given)                                                        
 
      Total molecular charge    0.00
 
      ************************************************************************************************************************
      *                                                                                                                      *
      *                                            Wave function control section                                             *
      *                                                                                                                      *
      ************************************************************************************************************************
 
 
                                         RASSCF iterations: Energy and convergence statistics
                                         ----------------------------------------------------
 
      Iter CI   SX   CI       RASSCF       Energy    max ROT     max BLB   max BLB  Level Ln srch  Step   QN   Walltime
          iter iter root      energy       change     param      element    value   shift minimum  type update hh:mm:ss
 Nr of preliminary CI iterations:   1
        1   1    3    0  -398.44308900    0.00E+00  -0.56E-04    9  13 1  0.71E-04   0.00   0.00    SX    NO    0:00:00
        2   1    3    0  -398.44308903   -0.26E-07*  0.11E-04    9  13 1  0.16E-04   0.00   0.00    SX    NO    0:00:00
        3   1    2    0  -398.44308903   -0.36E-09  -0.26E-05    9  13 1  0.39E-05   0.00   0.00    SX    NO    0:00:00
        4   1    2    0  -398.44308903   -0.42E-10  -0.68E-06    9  13 1  0.10E-05   0.00   0.00    SX    NO    0:00:00
      Convergence after  4 iterations
        5   1    2    0  -398.44308903    0.80E-10  -0.68E-06    9  12 1  0.28E-06   0.00   0.00    SX    NO    0:00:00
 
      ************************************************************************************************************************
                                                      Wave function printout:
                       occupation of active orbitals, and spin coupling of open shells (u,d: Spin up or down)
      ************************************************************************************************************************
 
      Note: transformation to natural orbitals
      has been made, which may change the order of the CSFs.
 
      printout of CI-coefficients larger than  0.10 for root  1
      energy=    -398.691538
      conf/sym  111111     Coeff  Weight
             1  222200  -0.97171 0.94422
            15  2u22d0   0.10924 0.01193
            38  2ud2ud   0.10920 0.01192
 
      printout of CI-coefficients larger than  0.10 for root  2
      energy=    -398.508200
      conf/sym  111111     Coeff  Weight
             2  222ud0   0.97539 0.95140
            10  22udud   0.10906 0.01189
 
      printout of CI-coefficients larger than  0.10 for root  3
      energy=    -398.478575
      conf/sym  111111     Coeff  Weight
             4  222u0d  -0.96184 0.92514
             8  22ud20  -0.11302 0.01277
            18  2u2dud  -0.16520 0.02729
            51  202u2d  -0.10588 0.01121
 
      printout of CI-coefficients larger than  0.10 for root  4
      energy=    -398.351924
      conf/sym  111111     Coeff  Weight
             9  22u20d  -0.74345 0.55272
            15  2u22d0   0.59730 0.35677
            31  220220  -0.17634 0.03110
            52  202202   0.13930 0.01940
 
      printout of CI-coefficients larger than  0.10 for root  5
      energy=    -398.345878
      conf/sym  111111     Coeff  Weight
             7  22u2d0   0.67353 0.45365
            17  2u220d  -0.67543 0.45621
            32  2202ud   0.13691 0.01875
            37  2ud220  -0.14811 0.02194
            40  2ud202   0.15180 0.02304
            50  2022ud  -0.10075 0.01015
 
      printout of CI-coefficients larger than  0.10 for root  6
      energy=    -398.282419
      conf/sym  111111     Coeff  Weight
             7  22u2d0   0.69812 0.48737
            17  2u220d   0.69811 0.48736
 
      Natural orbitals and occupation numbers for root  1
      sym 1:   1.997304   1.961193   1.964608   1.998624   0.048336   0.029935
 
      Natural orbitals and occupation numbers for root  2
      sym 1:   1.998912   1.986432   1.961516   1.000000   0.999157   0.053982
 
      Natural orbitals and occupation numbers for root  3
      sym 1:   1.998795   1.940168   1.971877   1.000000   0.096915   0.992244
 
      Natural orbitals and occupation numbers for root  4
      sym 1:   1.977020   1.582919   1.363576   1.983678   0.471470   0.621338
 
      Natural orbitals and occupation numbers for root  5
      sym 1:   1.992380   1.465189   1.450376   1.997413   0.550774   0.543869
 
      Natural orbitals and occupation numbers for root  6
      sym 1:   1.990636   1.498251   1.485250   1.998508   0.523339   0.504015
 
      ************************************************************************************************************************
      *                                                                                                                      *
      *                                                    Final results                                                     *
      *                                                                                                                      *
      ************************************************************************************************************************
 
 
++    Wave function specifications:
      -----------------------------
 
      Number of closed shell electrons          10
      Number of electrons in active shells       8
      Max number of holes in RAS1 space          0
      Max nr of electrons in RAS3 space          0
      Number of inactive orbitals                5
      Number of active orbitals                  6
      Number of secondary orbitals              17
      Spin quantum number                      0.0
      State symmetry                             1
--
 
++    Orbital specifications:
      -----------------------
 
      Symmetry species                           1
                                                 a
      Frozen orbitals                            0
      Inactive orbitals                          5
      Active orbitals                            6
      RAS1 orbitals                              0
      RAS2 orbitals                              6
      RAS3 orbitals                              0
      Secondary orbitals                        17
      Deleted orbitals                           0
      Number of basis functions                 28
--
 
++    CI expansion specifications:
      ----------------------------
 
      Number of CSFs                           105
      Number of determinants                   120
      Number of root(s) required                 6
      CI roots used                              1     2     3     4     5     6
      weights                                0.167 0.167 0.167 0.167 0.167 0.167
      highest root included in the CI            6
      Root passed to geometry opt.               6
--
 
++    Final optimization conditions:
      ------------------------------
 
      Average CI energy                            -398.44308903
      RASSCF energy for state  6                   -398.28241941
      Super-CI energy                                -0.00000000
      RASSCF energy change                            0.00000000
      Max change in MO coefficients              -0.166E-05
      Max non-diagonal density matrix element    -0.685E-06
      Maximum BLB matrix element                  0.278E-06
      (orbital pair   9,  12 in symmetry   1)
      Norm of electronic gradient            0.933E-01
--
 
 
      Final state energy(ies):
      ------------------------
 
::    RASSCF root number  1 Total energy:   -398.69153830
::    RASSCF root number  2 Total energy:   -398.50819965
::    RASSCF root number  3 Total energy:   -398.47857528
::    RASSCF root number  4 Total energy:   -398.35192376
::    RASSCF root number  5 Total energy:   -398.34587777
::    RASSCF root number  6 Total energy:   -398.28241941
      Von Neumann Entropy (Root   1) =  0.27649
 

      Mulliken population analysis for root number:  1
      -----------------------------------------------
 
 
++    Molecular charges:
      ------------------
 
      Mulliken charges per centre
      ---------------------------
 
                S1      H2      H3    
      Total   16.1051  0.9475  0.9475
 
      N-E     -0.1051  0.0525  0.0525
 
      Total electronic charge=   18.000000
 
      Total            charge=   -0.000000
--
 
 

      Expectation values of various properties for root number:  1
      -----------------------------------------------------------
 
 
++    Molecular properties:
      ---------------------
 
      Charge (e):
                      =   -0.0000
      Dipole Moment (Debye):
      Origin of the operator (Ang)=    0.0000    0.0000    0.0000
                   X= -8.8619E-07               Y= -7.1302E-10               Z=  9.1922E-01           Total=  9.1922E-01
      Quadrupole Moment (Debye*Ang):
      Origin of the operator (Ang)=    0.0000    0.0000    0.0709
                  XX= -1.6707E+01              XY=  1.2490E-06              XZ= -3.0201E-07              YY= -1.3273E+01
                  YZ=  1.3835E-09              ZZ= -1.3041E+01
      In traceless form (Debye*Ang)
                  XX= -3.5495E+00              XY=  1.8735E-06              XZ= -4.5302E-07              YY=  1.6005E+00
                  YZ=  2.0752E-09              ZZ=  1.9490E+00
--
 
      Von Neumann Entropy (Root   2) =  1.17888
 

      Mulliken population analysis for root number:  2
      -----------------------------------------------
 
 
++    Molecular charges:
      ------------------
 
      Mulliken charges per centre
      ---------------------------
 
                S1      H2      H3    
      Total   15.9281  1.0359  1.0359
 
      N-E      0.0719 -0.0359 -0.0359
 
      Total electronic charge=   18.000000
 
      Total            charge=   -0.000000
--
 
 

      Expectation values of various properties for root number:  2
      -----------------------------------------------------------
 
 
++    Molecular properties:
      ---------------------
 
      Charge (e):
                      =   -0.0000
      Dipole Moment (Debye):
      Origin of the operator (Ang)=    0.0000    0.0000    0.0000
                   X=  6.7458E-07               Y= -3.4081E-08               Z= -1.9428E-02           Total=  1.9428E-02
      Quadrupole Moment (Debye*Ang):
      Origin of the operator (Ang)=    0.0000    0.0000    0.0709
                  XX= -1.4008E+01              XY=  8.1366E-07              XZ= -3.5868E-08              YY= -1.6871E+01
                  YZ= -7.9781E-08              ZZ= -1.6417E+01
      In traceless form (Debye*Ang)
                  XX=  2.6359E+00              XY=  1.2205E-06              XZ= -5.3803E-08              YY= -1.6591E+00
                  YZ= -1.1967E-07              ZZ= -9.7683E-01
--
 
      Von Neumann Entropy (Root   3) =  1.27683
 

      Mulliken population analysis for root number:  3
      -----------------------------------------------
 
 
++    Molecular charges:
      ------------------
 
      Mulliken charges per centre
      ---------------------------
 
                S1      H2      H3    
      Total   15.8158  1.0921  1.0921
 
      N-E      0.1842 -0.0921 -0.0921
 
      Total electronic charge=   18.000000
 
      Total            charge=   -0.000000
--
 
 

      Expectation values of various properties for root number:  3
      -----------------------------------------------------------
 
 
++    Molecular properties:
      ---------------------
 
      Charge (e):
                      =   -0.0000
      Dipole Moment (Debye):
      Origin of the operator (Ang)=    0.0000    0.0000    0.0000
                   X=  6.1331E-07               Y=  6.2425E-10               Z= -1.1945E+00           Total=  1.1945E+00
      Quadrupole Moment (Debye*Ang):
      Origin of the operator (Ang)=    0.0000    0.0000    0.0709
                  XX= -1.4459E+01              XY=  6.6344E-07              XZ= -2.3879E-07              YY= -1.6936E+01
                  YZ=  2.8505E-08              ZZ= -1.8846E+01
      In traceless form (Debye*Ang)
                  XX=  3.4315E+00              XY=  9.9516E-07              XZ= -3.5819E-07              YY= -2.8333E-01
                  YZ=  4.2757E-08              ZZ= -3.1481E+00
--
 
      Von Neumann Entropy (Root   4) =  1.68742
 

      Mulliken population analysis for root number:  4
      -----------------------------------------------
 
 
++    Molecular charges:
      ------------------
 
      Mulliken charges per centre
      ---------------------------
 
                S1      H2      H3    
      Total   16.0051  0.9974  0.9974
 
      N-E     -0.0051  0.0026  0.0026
 
      Total electronic charge=   18.000000
 
      Total            charge=   -0.000000
--
 
 

      Expectation values of various properties for root number:  4
      -----------------------------------------------------------
 
 
++    Molecular properties:
      ---------------------
 
      Charge (e):
                      =   -0.0000
      Dipole Moment (Debye):
      Origin of the operator (Ang)=    0.0000    0.0000    0.0000
                   X= -1.2480E-06               Y= -1.8864E-07               Z= -3.7520E-01           Total=  3.7520E-01
      Quadrupole Moment (Debye*Ang):
      Origin of the operator (Ang)=    0.0000    0.0000    0.0709
                  XX= -1.7069E+01              XY=  1.1228E-06              XZ= -4.4684E-07              YY= -1.5655E+01
                  YZ= -5.0790E-07              ZZ= -1.5962E+01
      In traceless form (Debye*Ang)
                  XX= -1.2610E+00              XY=  1.6842E-06              XZ= -6.7027E-07              YY=  8.6085E-01
                  YZ= -7.6185E-07              ZZ=  4.0019E-01
--
 
      Von Neumann Entropy (Root   5) =  1.69562
 

      Mulliken population analysis for root number:  5
      -----------------------------------------------
 
 
++    Molecular charges:
      ------------------
 
      Mulliken charges per centre
      ---------------------------
 
                S1      H2      H3    
      Total   16.0417  0.9791  0.9791
 
      N-E     -0.0417  0.0209  0.0209
 
      Total electronic charge=   18.000000
 
      Total            charge=   -0.000000
--
 
 

      Expectation values of various properties for root number:  5
      -----------------------------------------------------------
 
 
++    Molecular properties:
      ---------------------
 
      Charge (e):
                      =   -0.0000
      Dipole Moment (Debye):
      Origin of the operator (Ang)=    0.0000    0.0000    0.0000
                   X= -1.2532E-06               Y=  1.6060E-07               Z= -8.1170E-03           Total=  8.1170E-03
      Quadrupole Moment (Debye*Ang):
      Origin of the operator (Ang)=    0.0000    0.0000    0.0709
                  XX= -1.7107E+01              XY=  1.3380E-06              XZ= -3.8208E-07              YY= -1.5351E+01
                  YZ=  4.6116E-07              ZZ= -1.5933E+01
      In traceless form (Debye*Ang)
                  XX= -1.4648E+00              XY=  2.0070E-06              XZ= -5.7312E-07              YY=  1.1692E+00
                  YZ=  6.9173E-07              ZZ=  2.9555E-01
--
 
      Von Neumann Entropy (Root   6) =  1.64602
 

      Mulliken population analysis for root number:  6
      -----------------------------------------------
 
 
++    Molecular charges:
      ------------------
 
      Mulliken charges per centre
      ---------------------------
 
                S1      H2      H3    
      Total   16.0055  0.9973  0.9973
 
      N-E     -0.0055  0.0027  0.0027
 
      Total electronic charge=   18.000000
 
      Total            charge=   -0.000000
--
 
 

      Expectation values of various properties for root number:  6
      -----------------------------------------------------------
 
 
++    Molecular properties:
      ---------------------
 
      Charge (e):
                      =   -0.0000
      Dipole Moment (Debye):
      Origin of the operator (Ang)=    0.0000    0.0000    0.0000
                   X= -1.2276E-06               Y= -3.1395E-08               Z=  3.6480E-01           Total=  3.6480E-01
      Quadrupole Moment (Debye*Ang):
      Origin of the operator (Ang)=    0.0000    0.0000    0.0709
                  XX= -1.7067E+01              XY=  1.2581E-06              XZ= -4.1492E-07              YY= -1.5251E+01
                  YZ= -8.5629E-08              ZZ= -1.5770E+01
      In traceless form (Debye*Ang)
                  XX= -1.5569E+00              XY=  1.8872E-06              XZ= -6.2237E-07              YY=  1.1678E+00
                  YZ= -1.2844E-07              ZZ=  3.8913E-01
--
 
 
      Input file to MOLDEN was generated!
 
 
      Input file to MOLDEN was generated!
 
 
      Input file to MOLDEN was generated!
 
 
      Input file to MOLDEN was generated!
 
 
      Input file to MOLDEN was generated!
 
 
      Input file to MOLDEN was generated!
 
 
      Input file to MOLDEN was generated!
 
      Average orbitals are written to the RASORB file
      Natural orbitals for root   1 are written to the RASORB.1 file
      Natural orbitals for root   2 are written to the RASORB.2 file
      Natural orbitals for root   3 are written to the RASORB.3 file
      Natural orbitals for root   4 are written to the RASORB.4 file
      Natural orbitals for root   5 are written to the RASORB.5 file
      Natural orbitals for root   6 are written to the RASORB.6 file
      Spin density orbitals for root   1 are written to the SPDORB.1 file
      Spin density orbitals for root   2 are written to the SPDORB.2 file
      Spin density orbitals for root   3 are written to the SPDORB.3 file
      Spin density orbitals for root   4 are written to the SPDORB.4 file
      Spin density orbitals for root   5 are written to the SPDORB.5 file
      Spin density orbitals for root   6 are written to the SPDORB.6 file
 
--- Stop Module: rasscf at Fri Mar 22 11:48:13 2024 /rc=_RC_ALL_IS_WELL_ ---
--- Module rasscf spent 2 seconds ---

>>> COPY MOLCAS.rasscf.molden MOLCAS.1.molden

>>> COPY MOLCAS.JobIph MOLCAS.1.JobIph

>>> COPY /public/manganese/scratch/tmp/sascha.925337/SAVE/MOLCAS.4.JobIph.0 JOBOLD

*** symbolic link created: INPORB -> MOLCAS.RasOrb
--- Start Module: rasscf at Fri Mar 22 11:48:13 2024 ---
 
()()()()()()()()()()()()()()()()()()()()()()()()()()()()()()()()()()()()()()()()()()()()()()()()()()

                                              &RASSCF

                                   only a single process is used
                       available to each process: 10 GB of memory, 1 thread?
                                            pid: 1867934
()()()()()()()()()()()()()()()()()()()()()()()()()()()()()()()()()()()()()()()()()()()()()()()()()()
 
 
      Header of the ONEINT file:
      --------------------------
      
      Integrals generated by Gateway/Seward, Fri Mar 22 11:48:10 2024
 
 
      OrdInt status: non-squared
 
 
      Cartesian coordinates in Angstrom:
      -----------------------------------------------------
      No.  Label        X            Y            Z        
      -----------------------------------------------------
       1   S1         0.00000000   0.00000000   0.00084100
       2   H2         0.00000000   0.97479900   1.18293400
       3   H3         0.00000000  -0.97479900   1.18293400
      -----------------------------------------------------
      Nuclear repulsion energy =   11.32343694
 
++    Wave function specifications:
      -----------------------------
 
      Number of closed shell electrons          10
      Number of electrons in active shells       7
      Max number of holes in RAS1 space          0
      Max nr of electrons in RAS3 space          0
      Number of inactive orbitals                5
      Number of active orbitals                  6
      Number of secondary orbitals              17
      Spin quantum number                      1.5
      State symmetry                             1
--
 
++    Orbital specifications:
      -----------------------
 
      Symmetry species                           1
                                                 a
      Frozen orbitals                            0
      Inactive orbitals                          5
      Active orbitals                            6
      RAS1 orbitals                              0
      RAS2 orbitals                              6
      RAS3 orbitals                              0
      Secondary orbitals                        17
      Deleted orbitals                           0
      Number of basis functions                 28
--
 
++    CI expansion specifications:
      ----------------------------
 
      Number of CSFs                            84
      Number of determinants                    90
      Number of root(s) required                 4
      Root chosen for geometry opt.              4
      CI roots used                              1     2     3     4
      weights                                0.250 0.250 0.250 0.250
      highest root included in the CI            4
      max. size of the explicit Hamiltonian     84
--
 
++    Optimization specifications:
      ----------------------------
 
      RASSCF algorithm: LK RI/DF
      Maximum number of macro iterations       200
      Maximum number of SX iterations          100
      Threshold for RASSCF energy            0.100E-07
      Threshold for max MO rotation          0.100E-03
      Threshold for max BLB element          0.100E-03
      Level shift parameter                  0.500E+00
      Make Quasi-Newton update
--
 
      The MO-coefficients are taken from the file:
      JOBOLD
      Title:(No title given)                                                        
 
      Total molecular charge    1.00
 
      ************************************************************************************************************************
      *                                                                                                                      *
      *                                            Wave function control section                                             *
      *                                                                                                                      *
      ************************************************************************************************************************
 
 
                                         RASSCF iterations: Energy and convergence statistics
                                         ----------------------------------------------------
 
      Iter CI   SX   CI       RASSCF       Energy    max ROT     max BLB   max BLB  Level Ln srch  Step   QN   Walltime
          iter iter root      energy       change     param      element    value   shift minimum  type update hh:mm:ss
 Nr of preliminary CI iterations:   1
        1   1    3    0  -398.06070862    0.00E+00   0.83E-04    6  23 1  0.50E-04   0.01   0.00    SX    NO    0:00:00
        2   1    3    0  -398.06070865   -0.24E-07* -0.20E-04   11  17 1 -0.70E-05   0.01   0.00    SX    NO    0:00:00
        3   1    2    0  -398.06070865   -0.58E-09  -0.54E-05   11  17 1 -0.19E-05   0.01   0.00    SX    NO    0:00:00
        4   1    2    0  -398.06070865   -0.37E-10  -0.15E-05   11  17 1 -0.55E-06   0.01   0.00    SX    NO    0:00:00
      Convergence after  4 iterations
        5   1    2    0  -398.06070865   -0.36E-11  -0.15E-05   11  17 1 -0.17E-06   0.01   0.00    SX    NO    0:00:00
 
      ************************************************************************************************************************
                                                      Wave function printout:
                       occupation of active orbitals, and spin coupling of open shells (u,d: Spin up or down)
      ************************************************************************************************************************
 
      Note: transformation to natural orbitals
      has been made, which may change the order of the CSFs.
 
      printout of CI-coefficients larger than  0.10 for root  1
      energy=    -398.109682
      conf/sym  111111     Coeff  Weight
             2  22uu0u   0.52149 0.27195
             4  2u2uu0   0.83119 0.69087
 
      printout of CI-coefficients larger than  0.10 for root  2
      energy=    -398.107381
      conf/sym  111111     Coeff  Weight
             1  22uuu0   0.86482 0.74792
             5  2u2u0u   0.47050 0.22137
 
      printout of CI-coefficients larger than  0.10 for root  3
      energy=    -398.013563
      conf/sym  111111     Coeff  Weight
             2  22uu0u  -0.82022 0.67277
             4  2u2uu0   0.51459 0.26481
            11  2uduuu   0.11479 0.01318
            22  2uuuud  -0.14199 0.02016
 
      printout of CI-coefficients larger than  0.10 for root  4
      energy=    -398.012210
      conf/sym  111111     Coeff  Weight
             1  22uuu0  -0.46403 0.21533
             5  2u2u0u   0.84522 0.71440
             7  u22uu0   0.12790 0.01636
            12  u2duuu  -0.10421 0.01086
            17  2uuu20  -0.13357 0.01784
 
      Natural orbitals and occupation numbers for root  1
      sym 1:   1.992103   1.272909   1.688897   1.000000   0.733223   0.312868
 
      Natural orbitals and occupation numbers for root  2
      sym 1:   1.990379   1.747062   1.216948   1.000000   0.787230   0.258381
 
      Natural orbitals and occupation numbers for root  3
      sym 1:   1.988680   1.667897   1.274159   1.000000   0.333843   0.735421
 
      Natural orbitals and occupation numbers for root  4
      sym 1:   1.976417   1.238323   1.729532   1.000000   0.300297   0.755432
 
      ************************************************************************************************************************
      *                                                                                                                      *
      *                                                    Final results                                                     *
      *                                                                                                                      *
      ************************************************************************************************************************
 
 
++    Wave function specifications:
      -----------------------------
 
      Number of closed shell electrons          10
      Number of electrons in active shells       7
      Max number of holes in RAS1 space          0
      Max nr of electrons in RAS3 space          0
      Number of inactive orbitals                5
      Number of active orbitals                  6
      Number of secondary orbitals              17
      Spin quantum number                      1.5
      State symmetry                             1
--
 
++    Orbital specifications:
      -----------------------
 
      Symmetry species                           1
                                                 a
      Frozen orbitals                            0
      Inactive orbitals                          5
      Active orbitals                            6
      RAS1 orbitals                              0
      RAS2 orbitals                              6
      RAS3 orbitals                              0
      Secondary orbitals                        17
      Deleted orbitals                           0
      Number of basis functions                 28
--
 
++    CI expansion specifications:
      ----------------------------
 
      Number of CSFs                            84
      Number of determinants                    90
      Number of root(s) required                 4
      CI roots used                              1     2     3     4
      weights                                0.250 0.250 0.250 0.250
      highest root included in the CI            4
      Root passed to geometry opt.               4
--
 
++    Final optimization conditions:
      ------------------------------
 
      Average CI energy                            -398.06070865
      RASSCF energy for state  4                   -398.01220959
      Super-CI energy                                -0.00000000
      RASSCF energy change                           -0.00000000
      Max change in MO coefficients               0.148E-05
      Max non-diagonal density matrix element    -0.154E-05
      Maximum BLB matrix element                 -0.166E-06
      (orbital pair  11,  17 in symmetry   1)
      Norm of electronic gradient            0.369E-01
--
 
 
      Final state energy(ies):
      ------------------------
 
::    RASSCF root number  1 Total energy:   -398.10968191
::    RASSCF root number  2 Total energy:   -398.10738055
::    RASSCF root number  3 Total energy:   -398.01356254
::    RASSCF root number  4 Total energy:   -398.01220959
      Von Neumann Entropy (Root   1) =  2.07596
 

      Mulliken population analysis for root number:  1
      -----------------------------------------------
 
 
++    Molecular charges:
      ------------------
 
      Mulliken charges per centre
      ---------------------------
 
                S1      H2      H3    
      Total   15.2632  0.8684  0.8684
 
      N-E      0.7368  0.1316  0.1316
 
      Total electronic charge=   17.000000
 
      Total            charge=    1.000000
--
 
 

      Expectation values of various properties for root number:  1
      -----------------------------------------------------------
 
 
++    Molecular properties:
      ---------------------
 
      Charge (e):
                      =    1.0000
      Dipole Moment (Debye):
      Origin of the operator (Ang)=    0.0000    0.0000    0.0000
                   X=  1.8528E-07               Y=  1.3307E-08               Z=  1.7436E+00           Total=  1.7436E+00
      Center of Charge (Ang)
                     X=    0.00000004               Y=    0.00000000               Z=    0.36300008
      Quadrupole Moment (Debye*Ang):
      Origin of the operator (Ang)=    0.0000    0.0000    0.0709
                  XX= -1.1556E+01              XY= -8.3692E-07              XZ=  9.1513E-07              YY= -1.0845E+01
                  YZ=  1.8136E-08              ZZ= -1.1274E+01
      In traceless form (Debye*Ang)
                  XX= -4.9706E-01              XY= -1.2554E-06              XZ=  1.3727E-06              YY=  5.7090E-01
                  YZ=  2.7205E-08              ZZ= -7.3839E-02
--
 

      Mulliken spin population analysis for root number:  1
      ---------------------------------------------------
 
 
++    Molecular charges:
      ------------------
 
      Mulliken spin population per centre
      ---------------------------
 
                S1      H2      H3    
      Total    2.0730  0.4635  0.4635
 
      Total electronic spin=    3.000000
--
 
 
      Von Neumann Entropy (Root   2) =  2.02433
 

      Mulliken population analysis for root number:  2
      -----------------------------------------------
 
 
++    Molecular charges:
      ------------------
 
      Mulliken charges per centre
      ---------------------------
 
                S1      H2      H3    
      Total   15.2419  0.8791  0.8791
 
      N-E      0.7581  0.1209  0.1209
 
      Total electronic charge=   17.000000
 
      Total            charge=    1.000000
--
 
 

      Expectation values of various properties for root number:  2
      -----------------------------------------------------------
 
 
++    Molecular properties:
      ---------------------
 
      Charge (e):
                      =    1.0000
      Dipole Moment (Debye):
      Origin of the operator (Ang)=    0.0000    0.0000    0.0000
                   X=  3.5158E-07               Y= -7.8241E-09               Z=  1.0415E+00           Total=  1.0415E+00
      Center of Charge (Ang)
                     X=    0.00000007               Y=   -0.00000000               Z=    0.21683599
      Quadrupole Moment (Debye*Ang):
      Origin of the operator (Ang)=    0.0000    0.0000    0.0709
                  XX= -1.1464E+01              XY= -7.3742E-07              XZ=  7.7470E-07              YY= -1.1826E+01
                  YZ= -9.1781E-09              ZZ= -1.0300E+01
      In traceless form (Debye*Ang)
                  XX= -4.0067E-01              XY= -1.1061E-06              XZ=  1.1620E-06              YY= -9.4430E-01
                  YZ= -1.3767E-08              ZZ=  1.3450E+00
--
 

      Mulliken spin population analysis for root number:  2
      ---------------------------------------------------
 
 
++    Molecular charges:
      ------------------
 
      Mulliken spin population per centre
      ---------------------------
 
                S1      H2      H3    
      Total    2.2017  0.3991  0.3991
 
      Total electronic spin=    3.000000
--
 
 
      Von Neumann Entropy (Root   3) =  2.10286
 

      Mulliken population analysis for root number:  3
      -----------------------------------------------
 
 
++    Molecular charges:
      ------------------
 
      Mulliken charges per centre
      ---------------------------
 
                S1      H2      H3    
      Total   15.2307  0.8847  0.8847
 
      N-E      0.7693  0.1153  0.1153
 
      Total electronic charge=   17.000000
 
      Total            charge=    1.000000
--
 
 

      Expectation values of various properties for root number:  3
      -----------------------------------------------------------
 
 
++    Molecular properties:
      ---------------------
 
      Charge (e):
                      =    1.0000
      Dipole Moment (Debye):
      Origin of the operator (Ang)=    0.0000    0.0000    0.0000
                   X= -2.2375E-08               Y=  9.3698E-08               Z=  9.7922E-01           Total=  9.7922E-01
      Center of Charge (Ang)
                     X=   -0.00000000               Y=    0.00000002               Z=    0.20386816
      Quadrupole Moment (Debye*Ang):
      Origin of the operator (Ang)=    0.0000    0.0000    0.0709
                  XX= -1.1658E+01              XY= -6.3006E-07              XZ=  6.0979E-07              YY= -1.1644E+01
                  YZ=  2.6158E-07              ZZ= -1.1118E+01
      In traceless form (Debye*Ang)
                  XX= -2.7693E-01              XY= -9.4509E-07              XZ=  9.1468E-07              YY= -2.5568E-01
                  YZ=  3.9237E-07              ZZ=  5.3261E-01
--
 

      Mulliken spin population analysis for root number:  3
      ---------------------------------------------------
 
 
++    Molecular charges:
      ------------------
 
      Mulliken spin population per centre
      ---------------------------
 
                S1      H2      H3    
      Total    1.7530  0.6235  0.6235
 
      Total electronic spin=    3.000000
--
 
 
      Von Neumann Entropy (Root   4) =  2.06769
 

      Mulliken population analysis for root number:  4
      -----------------------------------------------
 
 
++    Molecular charges:
      ------------------
 
      Mulliken charges per centre
      ---------------------------
 
                S1      H2      H3    
      Total   15.2200  0.8900  0.8900
 
      N-E      0.7800  0.1100  0.1100
 
      Total electronic charge=   17.000000
 
      Total            charge=    1.000000
--
 
 

      Expectation values of various properties for root number:  4
      -----------------------------------------------------------
 
 
++    Molecular properties:
      ---------------------
 
      Charge (e):
                      =    1.0000
      Dipole Moment (Debye):
      Origin of the operator (Ang)=    0.0000    0.0000    0.0000
                   X= -3.2448E-07               Y= -8.6264E-08               Z=  1.3855E+00           Total=  1.3855E+00
      Center of Charge (Ang)
                     X=   -0.00000007               Y=   -0.00000002               Z=    0.28844845
      Quadrupole Moment (Debye*Ang):
      Origin of the operator (Ang)=    0.0000    0.0000    0.0709
                  XX= -1.1671E+01              XY=  7.3543E-07              XZ=  1.0773E-06              YY= -1.0723E+01
                  YZ= -2.5446E-07              ZZ= -1.2176E+01
      In traceless form (Debye*Ang)
                  XX= -2.2192E-01              XY=  1.1031E-06              XZ=  1.6159E-06              YY=  1.2003E+00
                  YZ= -3.8169E-07              ZZ= -9.7837E-01
--
 

      Mulliken spin population analysis for root number:  4
      ---------------------------------------------------
 
 
++    Molecular charges:
      ------------------
 
      Mulliken spin population per centre
      ---------------------------
 
                S1      H2      H3    
      Total    1.7884  0.6058  0.6058
 
      Total electronic spin=    3.000000
--
 
 
 
      Input file to MOLDEN was generated!
 
 
      Input file to MOLDEN was generated!
 
 
      Input file to MOLDEN was generated!
 
 
      Input file to MOLDEN was generated!
 
 
      Input file to MOLDEN was generated!
 
      Average orbitals are written to the RASORB file
      Natural orbitals for root   1 are written to the RASORB.1 file
      Natural orbitals for root   2 are written to the RASORB.2 file
      Natural orbitals for root   3 are written to the RASORB.3 file
      Natural orbitals for root   4 are written to the RASORB.4 file
      Spin density orbitals for root   1 are written to the SPDORB.1 file
      Spin density orbitals for root   2 are written to the SPDORB.2 file
      Spin density orbitals for root   3 are written to the SPDORB.3 file
      Spin density orbitals for root   4 are written to the SPDORB.4 file
 
--- Stop Module: rasscf at Fri Mar 22 11:48:15 2024 /rc=_RC_ALL_IS_WELL_ ---
--- Module rasscf spent 2 seconds ---

>>> COPY MOLCAS.rasscf.molden MOLCAS.4.molden

>>> COPY MOLCAS.JobIph MOLCAS.4.JobIph

>>> COPY /public/manganese/scratch/tmp/sascha.925337/SAVE/MOLCAS.1.JobIph.0 JOB001

>>> COPY MOLCAS.1.JobIph JOB002

*** symbolic link created: INPORB -> MOLCAS.RasOrb
--- Start Module: rassi at Fri Mar 22 11:48:15 2024 ---
 
()()()()()()()()()()()()()()()()()()()()()()()()()()()()()()()()()()()()()()()()()()()()()()()()()()

                                               &RASSI

                                   only a single process is used
                       available to each process: 10 GB of memory, 1 thread?
                                            pid: 1867938
()()()()()()()()()()()()()()()()()()()()()()()()()()()()()()()()()()()()()()()()()()()()()()()()()()
 
 
      ********************************************************************************
      *                                                                              *
      *                             General data section                             *
      *                                                                              *
      ********************************************************************************
 
   Specific data for JOBIPH file 
 JOB001                                                                         
                                                  
   -------------------------------------
 
   Header from SEWARD:
                                                                               
        Integrals generated by Gateway/Seward, Fri Mar 22 11:47:39 2024        
 
   CASSCF title (first line only):
       (No title given)                                                        
 
   STATE IRREP:                             1
   SPIN MULTIPLICITY:                       1
   ACTIVE ELECTRONS:                        8
   MAX RAS1 HOLES:                          0
   MAX RAS3 ELECTRONS:                      0
   NR OF CONFIG:                          105
 
   Specific data for JOBIPH file 
 JOB002                                                                         
                                                  
   -------------------------------------
 
   Header from SEWARD:
                                                                               
        Integrals generated by Gateway/Seward, Fri Mar 22 11:48:10 2024        
 
   CASSCF title (first line only):
       (No title given)                                                        
 
   STATE IRREP:                             1
   SPIN MULTIPLICITY:                       1
   ACTIVE ELECTRONS:                        8
   MAX RAS1 HOLES:                          0
   MAX RAS3 ELECTRONS:                      0
   NR OF CONFIG:                          105
 
   The following data are common to all the states:
   ------------------------------------------------
   (note: frozen counts as inactive, deleted as secondary)
 
      Nr of irreps: 1
 
                 Total     No./Irrep 
      Irrep                  1
                             a
 
      INACTIVE       5       5
      ACTIVE         6       6
      SECONDARY     17      17
      BASIS         28      28
 
      RAS1           0       0
      RAS2           6       6
      RAS3           0       0
 
        MATRIX ELEMENTS WILL BE COMPUTED FOR THE FOLLOWING ONE-ELECTRON OPERATOR
 S, UNLESS ZERO BY SYMMETRY.
   (Herm=Hermitian, Anti=Antihermitian, Sing=Singlet operator, Trip=Triplet oper
 ator)
     MLTPL  0   1 (HERMSING)     MLTPL  1   1 (HERMSING)     MLTPL  1   2 (HERMSING)
     MLTPL  1   3 (HERMSING)     MLTPL  2   1 (HERMSING)     MLTPL  2   2 (HERMSING)
     MLTPL  2   3 (HERMSING)     MLTPL  2   4 (HERMSING)     MLTPL  2   5 (HERMSING)
     MLTPL  2   6 (HERMSING)     VELOCITY   1 (ANTISING)     VELOCITY   2 (ANTISING)
     VELOCITY   3 (ANTISING)     ANGMOM     1 (ANTISING)     ANGMOM     2 (ANTISING)
     ANGMOM     3 (ANTISING)     MLTPV  2   1 (ANTISING)     MLTPV  2   2 (ANTISING)
     MLTPV  2   3 (ANTISING)     MLTPV  2   4 (ANTISING)     MLTPV  2   5 (ANTISING)
     MLTPV  2   6 (ANTISING)
 
       EIGENSTATES OF A SPIN-FREE HAMILTONIAN WILL BE COMPUTED BASED ON:
 
  A Hamiltonian matrix computed by RASSI.
 
  Nr of states:                     2
 
   State:        1   2
  JobIph:        1   2
 Root nr:        1   1
 

 MO OVERLAP MATRIX IN ORIGINAL ORBITAL BASES:

 
 SYMMETRY LABELS OF ROWS/COLS: 1 1


               1               2               3               4               5

   1   1.00000000      0.751490136E-10  0.461115819E-10 -0.125089007E-10  0.100433683E-07
   2 -0.656529741E-10   1.00000000     -0.147762124E-09 -0.171590540E-08  0.116292275E-05
   3 -0.470723038E-10 -0.332886150E-09  0.999999911     -0.114860004E-05  0.422644386E-03
   4  0.155633371E-10  0.230911998E-08  0.136527111E-05  0.999999869     -0.512710748E-03
   5 -0.850970270E-08 -0.114847454E-05 -0.422630355E-03  0.512703412E-03  0.999999779    
   6  0.193865030E-08  0.130806515E-08  0.304555295E-06  0.124174767E-08 -0.738821506E-06
   7 -0.648479881E-11  0.305478594E-09  0.108399520E-08  0.166906278E-08  0.363456115E-06
   8  0.702705307E-10 -0.958963704E-09 -0.143564692E-07  0.661586331E-09 -0.322031791E-06
   9  0.176942890E-07  0.353113517E-06 -0.236210984E-06  0.182079431E-06 -0.393851418E-08
  10 -0.105160837E-10 -0.898029343E-10 -0.119392861E-09  0.157950054E-08  0.645035682E-08
  11  0.344383071E-10 -0.164566919E-08 -0.111014075E-07  0.284145201E-11  0.121820010E-06


               6               7               8               9              10

   1 -0.138108500E-08 -0.164212896E-08  0.120676277E-08 -0.807047260E-08  0.465026701E-08
   2  0.396422417E-08 -0.145921469E-07  0.121296768E-07 -0.364231191E-06  0.366265199E-07
   3 -0.300462777E-06 -0.915139762E-08  0.209544959E-07  0.169492549E-06  0.140138036E-07
   4 -0.469320049E-08  0.509967281E-08 -0.603725154E-08 -0.758775959E-07 -0.128721667E-07
   5  0.343473517E-05 -0.767822790E-05  0.605182294E-05  0.405741873E-08  0.185548138E-04
   6   1.00000002     -0.845269180E-07  0.113630166E-06  0.725442842E-04  0.138423397E-06
   7  0.501999026E-07  0.999999926     -0.399155867E-05 -0.459666136E-03 -0.982556366E-07
   8 -0.859780463E-07  0.411447009E-05  0.999999950      0.388914374E-03  0.116171406E-06
   9 -0.296455014E-04  0.341347504E-03 -0.295755827E-03  0.999999780      0.503581938E-03
  10 -0.944848718E-08 -0.285396055E-08 -0.120379573E-07 -0.211748277E-03  0.999999851    
  11 -0.767714895E-08 -0.178042534E-07  0.202912938E-07 -0.123568516E-03 -0.163133693E-04


              11
   1  0.476485097E-08
   2  0.388432472E-07
   3  0.234881072E-07
   4 -0.100996906E-07
   5  0.186639651E-04
   6  0.125040061E-06
   7 -0.338458060E-07
   8  0.406819472E-07
   9  0.415106336E-03
  10  0.160494321E-04
  11  0.999999887    
 
 *******************************************************************************
 *
 
  HAMILTONIAN MATRIX FOR THE ORIGINAL STATES:
 
                   |    1 >          |    2 > 
 <    1 |      -398.69153835     -398.69147468
 <    2 |      -398.69147468     -398.69153831
 
      OVERLAP MATRIX FOR THE ORIGINAL STATES:
 
      1.00000000
      0.99999984      1.00000000
 
++ Matrix elements for input states
   --------------------------------
 
  MATRIX ELEMENTS OF 1-ELECTRON OPERATORS
  FOR THE RASSCF INPUT WAVE FUNCTIONS:
 
 
 PROPERTY: MLTPL  0   COMPONENT:*   1
 ORIGIN    :   0.00000000D+00   0.00000000D+00   0.00000000D+00
 STATE     :       1                2
 
     1        0.359130432E-07 -0.355271368E-14
     2       -0.355271368E-14 -0.113686838E-12
 
 
 PROPERTY: MLTPL  1   COMPONENT:*   1
 ORIGIN    :   0.00000000D+00   0.00000000D+00   0.00000000D+00
 STATE     :       1                2
 
     1       -0.122865495E-03 -0.255537673E-04
     2       -0.255537673E-04 -0.348652495E-06
 
 
 PROPERTY: MLTPL  1   COMPONENT:*   2
 ORIGIN    :   0.00000000D+00   0.00000000D+00   0.00000000D+00
 STATE     :       1                2
 
     1        0.235867305E-06 -0.231957524E-07
     2       -0.231957524E-07 -0.280538703E-09
 
 
 PROPERTY: MLTPL  1   COMPONENT:*   3
 ORIGIN    :   0.00000000D+00   0.00000000D+00   0.00000000D+00
 STATE     :       1                2
 
     1        0.361649251      0.361649486    
     2        0.361649486      0.361649692    
 
 
 PROPERTY: MLTPL  2   COMPONENT:*   1
 ORIGIN    :   0.00000000D+00   0.00000000D+00   0.13406721D+00
 STATE     :       1                2
 
     1        -12.4208952      -12.4208949    
     2        -12.4208949      -12.4208975    
 
 
 PROPERTY: MLTPL  2   COMPONENT:*   2
 ORIGIN    :   0.00000000D+00   0.00000000D+00   0.13406721D+00
 STATE     :       1                2
 
     1        0.118112542E-02  0.367632693E-03
     2        0.367632693E-03  0.928614925E-06
 
 
 PROPERTY: MLTPL  2   COMPONENT:*   3
 ORIGIN    :   0.00000000D+00   0.00000000D+00   0.13406721D+00
 STATE     :       1                2
 
     1       -0.858198643E-03 -0.233765409E-03
     2       -0.233765409E-03 -0.224540314E-06
 
 
 PROPERTY: MLTPL  2   COMPONENT:*   4
 ORIGIN    :   0.00000000D+00   0.00000000D+00   0.13406721D+00
 STATE     :       1                2
 
     1        -9.86826911      -9.86826624    
     2        -9.86826624      -9.86826702    
 
 
 PROPERTY: MLTPL  2   COMPONENT:*   5
 ORIGIN    :   0.00000000D+00   0.00000000D+00   0.13406721D+00
 STATE     :       1                2
 
     1        0.649374894E-06 -0.168673315E-07
     2       -0.168673315E-07  0.102853503E-08
 
 
 PROPERTY: MLTPL  2   COMPONENT:*   6
 ORIGIN    :   0.00000000D+00   0.00000000D+00   0.13406721D+00
 STATE     :       1                2
 
     1        -9.69552320      -9.69552085    
     2        -9.69552085      -9.69552199    
 
 
 PROPERTY: VELOCITY   COMPONENT:*   1
 ORIGIN    :   0.00000000D+00   0.00000000D+00   0.00000000D+00
 STATE     :       1                2
 
     1        0.351232637E-19  0.139615629E-04
     2       -0.139615629E-04  0.806985966E-22
 
 
 PROPERTY: VELOCITY   COMPONENT:*   2
 ORIGIN    :   0.00000000D+00   0.00000000D+00   0.00000000D+00
 STATE     :       1                2
 
     1        0.313008793E-17 -0.556756370E-08
     2        0.556756370E-08 -0.273597083E-16
 
 
 PROPERTY: VELOCITY   COMPONENT:*   3
 ORIGIN    :   0.00000000D+00   0.00000000D+00   0.00000000D+00
 STATE     :       1                2
 
     1       -0.193605129E-16 -0.482113083E-07
     2        0.482113083E-07 -0.197753875E-15
 
 
 PROPERTY: ANGMOM     COMPONENT:*   1
 ORIGIN    :   0.00000000D+00   0.00000000D+00   0.00000000D+00
 STATE     :       1                2
 
     1        0.193693259E-17  0.303810407E-07
     2       -0.303810407E-07 -0.804573135E-16
 
 
 PROPERTY: ANGMOM     COMPONENT:*   2
 ORIGIN    :   0.00000000D+00   0.00000000D+00   0.00000000D+00
 STATE     :       1                2
 
     1       -0.166462809E-18 -0.124169612E-03
     2        0.124169612E-03 -0.218943639E-21
 
 
 PROPERTY: ANGMOM     COMPONENT:*   3
 ORIGIN    :   0.00000000D+00   0.00000000D+00   0.00000000D+00
 STATE     :       1                2
 
     1        0.212140086E-18 -0.237423840E-03
     2        0.237423840E-03 -0.253955506E-21
 
 
 PROPERTY: MLTPV  2   COMPONENT:*   1
 ORIGIN    :   0.00000000D+00   0.00000000D+00   0.13406721D+00
 STATE     :       1                2
 
     1        0.149917165E-16 -0.545643053E-06
     2        0.545643053E-06  0.167852256E-15
 
 
 PROPERTY: MLTPV  2   COMPONENT:*   2
 ORIGIN    :   0.00000000D+00   0.00000000D+00   0.13406721D+00
 STATE     :       1                2
 
     1       -0.782217556E-20 -0.127452656E-03
     2        0.127452656E-03  0.859420798E-23
 
 
 PROPERTY: MLTPV  2   COMPONENT:*   3
 ORIGIN    :   0.00000000D+00   0.00000000D+00   0.13406721D+00
 STATE     :       1                2
 
     1        0.170516798E-20  0.121273344E-03
     2       -0.121273344E-03  0.214273703E-22
 
 
 PROPERTY: MLTPV  2   COMPONENT:*   4
 ORIGIN    :   0.00000000D+00   0.00000000D+00   0.13406721D+00
 STATE     :       1                2
 
     1        0.238943434E-16  0.219872584E-06
     2       -0.219872584E-06  0.364769255E-15
 
 
 PROPERTY: MLTPV  2   COMPONENT:*   5
 ORIGIN    :   0.00000000D+00   0.00000000D+00   0.13406721D+00
 STATE     :       1                2
 
     1        0.167692627E-16  0.280698137E-07
     2       -0.280698137E-07  0.107748716E-16
 
 
 PROPERTY: MLTPV  2   COMPONENT:*   6
 ORIGIN    :   0.00000000D+00   0.00000000D+00   0.13406721D+00
 STATE     :       1                2
 
     1       -0.223583468E-17  0.772862095E-07
     2       -0.772862095E-07  0.483962259E-15
 
--
 
::    RASSI State    1     Total energy:    -398.80697735071209
::    RASSI State    2     Total energy:    -398.69153830541319
 
 
 
      ****************************************************************************************************
      *                                                                                                  *
      *                                         Spin-free section                                        *
      *                                                                                                  *
      *                 Note: index according to input order, order according to energy.                 *
      *                                                                                                  *
      ****************************************************************************************************
 
 
 
  SPIN-FREE ENERGIES:
  (Shifted by EMIN (a.u.) =       -398.8069773507)
 
 SF State       Relative EMIN(au)   Rel lowest level(eV)    D:o, cm**(-1)
 
     1             0.0000000000        0.0000000000              0.0000
     2             0.1154390453        3.1412564495          25335.9419
 
   Spin-free eigenstates in basis of input states:
   -----------------------------------------------
 
     Eigenstate No.    1 energy=   -398.8069773507
 1 1770.068792 2-1770.068482                                                    
                      
 
     Eigenstate No.    2 energy=   -398.6915383054
 2 1.049085                                                                     
                      
 
 
++ Dipole transition strengths (spin-free states):
   -----------------------------------------------
     for osc. strength at least  1.00000000E-05
 
      From   To        Osc. strength     Einstein coefficients Ax, Ay, Az (sec-1)    Total A (sec-1)
     -----------------------------------------------------------------------------------------------
         1    2       1.13190328E-04  4.84625343E+04  1.39481648E-01  2.04024287E+00  4.84647140E+04
     -----------------------------------------------------------------------------------------------
--
 
++ Velocity transition strengths (spin-free states):
   -------------------------------------------------
     for osc. strength at least  1.00000000E-05
 
      From   To        Osc. strength     Einstein coefficients Ax, Ay, Az (sec-1)    Total A (sec-1)
     -----------------------------------------------------------------------------------------------
         1    2       3.52703385E-03  1.51015219E+06  2.40150245E-01  1.80073779E+01  1.51017044E+06
     -----------------------------------------------------------------------------------------------
--
 
++ Length and velocity gauge comparison (spin-free states):
   --------------------------------------------------------
 
 --------------------------------------------------
 A comparison between the dipole oscillator strengths in 
 length and velocity gauge will be performed
 
     All dipole oscillator differences above the tolerance of   1.00000000E-01  will be printed 
 
 Due to basis set deficiency these oscillator may be problematic 
 
 The tolerance is defined as ABS(1-O_l/O_v) 
 O_l : dipole oscillator strength in length gauge
 O_p : dipole oscillator strength in velocity gauge
 --------------------------------------------------
 
  Problematic transitions have been found
 
      From   To       Difference (%) Osc. st. (len.) Osc. st. (vel.)
     ---------------------------------------------------------------
         1    2            96.790779  1.13190328E-04  3.52703385E-03
     ---------------------------------------------------------------
 
 Number of problematic transitions =                      1
 
--
 
 Electric-dipole - electric-octupole not included
 Electric-dipole - magnetic-quadrupole not included
 
 
      ****************************************************************************************************
      *                                                                                                  *
      *                                    Special properties section                                    *
      *                                                                                                  *
      ****************************************************************************************************
 
 
++ I/O STATISTICS
 
  I. General I/O information
  - - - - - - - - - - - - - - - - - - - - - - - - - - - - - - - - - - - - - - - - - - -
  Unit  Name          Flsize      Write/Read            MBytes           Write/Read
                      (MBytes)       Calls              In/Out           Time, sec.
  - - - - - - - - - - - - - - - - - - - - - - - - - - - - - - - - - - - - - - - - - - -
   1  ANNI              0.00 .       0/       0 .      0.0/      0.0 .       0/       0
   2  RUNFILE           0.24 .     308/    1788 .      2.2/     12.9 .       0/       0
   3  ONEINT            1.46 .       0/     260 .      0.0/    243.5 .       0/       0
   4  JOB001            1.22 .       0/      38 .      0.0/      0.2 .       0/       0
   5  JOB002            1.22 .       0/      38 .      0.0/      0.2 .       0/       0
   6  CHRED             0.01 .       0/      18 .      0.0/      0.0 .       0/       0
   7  CHVEC1            0.36 .       0/      15 .      0.0/      1.1 .       0/       0
   8  CHORST            0.00 .       0/      36 .      0.0/      0.0 .       0/       0
   9  CHOMAP            0.00 .       0/       0 .      0.0/      0.0 .       0/       0
  10  CHODIAG           0.00 .       0/       3 .      0.0/      0.0 .       0/       0
  - - - - - - - - - - - - - - - - - - - - - - - - - - - - - - - - - - - - - - - - - - -
   *  TOTAL             4.52 .     308/    2196 .      2.2/    257.9 .       0/       0
  - - - - - - - - - - - - - - - - - - - - - - - - - - - - - - - - - - - - - - - - - - -
 
  II. I/O Access Patterns
  - - - - - - - - - - - - - - - - - - - -
  Unit  Name               % of random
                         Write/Read calls
  - - - - - - - - - - - - - - - - - - - -
   1  ANNI                 0.0/   0.0
   2  RUNFILE             28.6/  10.1
   3  ONEINT               0.0/  97.7
   4  JOB001               0.0/  81.6
   5  JOB002               0.0/  81.6
   6  CHRED                0.0/  16.7
   7  CHVEC1               0.0/   0.0
   8  CHORST               0.0/   0.0
   9  CHOMAP               0.0/   0.0
  10  CHODIAG              0.0/   0.0
  - - - - - - - - - - - - - - - - - - - -
--
--- Stop Module: rassi at Fri Mar 22 11:48:15 2024 /rc=_RC_ALL_IS_WELL_ ---

>>> COPY MOLCAS.rassi.h5 MOLCAS.rassi.ovlp.1.h5

>>> COPY MOLCAS.1.JobIph JOB001

*** symbolic link created: INPORB -> MOLCAS.RasOrb
--- Start Module: rassi at Fri Mar 22 11:48:15 2024 ---
 
()()()()()()()()()()()()()()()()()()()()()()()()()()()()()()()()()()()()()()()()()()()()()()()()()()

                                               &RASSI

                                   only a single process is used
                       available to each process: 10 GB of memory, 1 thread?
                                            pid: 1867941
()()()()()()()()()()()()()()()()()()()()()()()()()()()()()()()()()()()()()()()()()()()()()()()()()()
 
 
      ********************************************************************************
      *                                                                              *
      *                             General data section                             *
      *                                                                              *
      ********************************************************************************
 
   Specific data for JOBIPH file 
 JOB001                                                                         
                                                  
   -------------------------------------
 
   Header from SEWARD:
                                                                               
        Integrals generated by Gateway/Seward, Fri Mar 22 11:48:10 2024        
 
   CASSCF title (first line only):
       (No title given)                                                        
 
   STATE IRREP:                             1
   SPIN MULTIPLICITY:                       1
   ACTIVE ELECTRONS:                        8
   MAX RAS1 HOLES:                          0
   MAX RAS3 ELECTRONS:                      0
   NR OF CONFIG:                          105
 
   The following data are common to all the states:
   ------------------------------------------------
   (note: frozen counts as inactive, deleted as secondary)
 
      Nr of irreps: 1
 
                 Total     No./Irrep 
      Irrep                  1
                             a
 
      INACTIVE       5       5
      ACTIVE         6       6
      SECONDARY     17      17
      BASIS         28      28
 
      RAS1           0       0
      RAS2           6       6
      RAS3           0       0
 
        MATRIX ELEMENTS WILL BE COMPUTED FOR THE FOLLOWING ONE-ELECTRON OPERATOR
 S, UNLESS ZERO BY SYMMETRY.
   (Herm=Hermitian, Anti=Antihermitian, Sing=Singlet operator, Trip=Triplet oper
 ator)
     MLTPL  0   1 (HERMSING)     MLTPL  1   1 (HERMSING)     MLTPL  1   2 (HERMSING)
     MLTPL  1   3 (HERMSING)     MLTPL  2   1 (HERMSING)     MLTPL  2   2 (HERMSING)
     MLTPL  2   3 (HERMSING)     MLTPL  2   4 (HERMSING)     MLTPL  2   5 (HERMSING)
     MLTPL  2   6 (HERMSING)     VELOCITY   1 (ANTISING)     VELOCITY   2 (ANTISING)
     VELOCITY   3 (ANTISING)     ANGMOM     1 (ANTISING)     ANGMOM     2 (ANTISING)
     ANGMOM     3 (ANTISING)     MLTPV  2   1 (ANTISING)     MLTPV  2   2 (ANTISING)
     MLTPV  2   3 (ANTISING)     MLTPV  2   4 (ANTISING)     MLTPV  2   5 (ANTISING)
     MLTPV  2   6 (ANTISING)
 
       EIGENSTATES OF A SPIN-FREE HAMILTONIAN WILL BE COMPUTED BASED ON:
 
  A Hamiltonian matrix computed by RASSI.
 
  Nr of states:                     1
 
   State:        1
  JobIph:        1
 Root nr:        1
 
  HAMILTONIAN MATRIX FOR THE ORIGINAL STATES:
 
  Diagonal, with energies
   -398.69153831
 
      OVERLAP MATRIX FOR THE ORIGINAL STATES:
 
  Diagonal, with elements
      1.00000000
 
++ Matrix elements for input states
   --------------------------------
 
  MATRIX ELEMENTS OF 1-ELECTRON OPERATORS
  FOR THE RASSCF INPUT WAVE FUNCTIONS:
 
 
 PROPERTY: MLTPL  0   COMPONENT:*   1
 ORIGIN    :   0.00000000D+00   0.00000000D+00   0.00000000D+00
 STATE     :       1
 
     1       -0.113686838E-12
 
 
 PROPERTY: MLTPL  1   COMPONENT:*   1
 ORIGIN    :   0.00000000D+00   0.00000000D+00   0.00000000D+00
 STATE     :       1
 
     1       -0.348652495E-06
 
 
 PROPERTY: MLTPL  1   COMPONENT:*   2
 ORIGIN    :   0.00000000D+00   0.00000000D+00   0.00000000D+00
 STATE     :       1
 
     1       -0.280538703E-09
 
 
 PROPERTY: MLTPL  1   COMPONENT:*   3
 ORIGIN    :   0.00000000D+00   0.00000000D+00   0.00000000D+00
 STATE     :       1
 
     1        0.361649692    
 
 
 PROPERTY: MLTPL  2   COMPONENT:*   1
 ORIGIN    :   0.00000000D+00   0.00000000D+00   0.13406721D+00
 STATE     :       1
 
     1        -12.4208975    
 
 
 PROPERTY: MLTPL  2   COMPONENT:*   2
 ORIGIN    :   0.00000000D+00   0.00000000D+00   0.13406721D+00
 STATE     :       1
 
     1        0.928614925E-06
 
 
 PROPERTY: MLTPL  2   COMPONENT:*   3
 ORIGIN    :   0.00000000D+00   0.00000000D+00   0.13406721D+00
 STATE     :       1
 
     1       -0.224540314E-06
 
 
 PROPERTY: MLTPL  2   COMPONENT:*   4
 ORIGIN    :   0.00000000D+00   0.00000000D+00   0.13406721D+00
 STATE     :       1
 
     1        -9.86826702    
 
 
 PROPERTY: MLTPL  2   COMPONENT:*   5
 ORIGIN    :   0.00000000D+00   0.00000000D+00   0.13406721D+00
 STATE     :       1
 
     1        0.102853503E-08
 
 
 PROPERTY: MLTPL  2   COMPONENT:*   6
 ORIGIN    :   0.00000000D+00   0.00000000D+00   0.13406721D+00
 STATE     :       1
 
     1        -9.69552199    
 
 
 PROPERTY: VELOCITY   COMPONENT:*   1
 ORIGIN    :   0.00000000D+00   0.00000000D+00   0.00000000D+00
 STATE     :       1
 
     1        0.806985966E-22
 
 
 PROPERTY: VELOCITY   COMPONENT:*   2
 ORIGIN    :   0.00000000D+00   0.00000000D+00   0.00000000D+00
 STATE     :       1
 
     1       -0.273597083E-16
 
 
 PROPERTY: VELOCITY   COMPONENT:*   3
 ORIGIN    :   0.00000000D+00   0.00000000D+00   0.00000000D+00
 STATE     :       1
 
     1       -0.197753875E-15
 
 
 PROPERTY: ANGMOM     COMPONENT:*   1
 ORIGIN    :   0.00000000D+00   0.00000000D+00   0.00000000D+00
 STATE     :       1
 
     1       -0.804573135E-16
 
 
 PROPERTY: ANGMOM     COMPONENT:*   2
 ORIGIN    :   0.00000000D+00   0.00000000D+00   0.00000000D+00
 STATE     :       1
 
     1       -0.218943639E-21
 
 
 PROPERTY: ANGMOM     COMPONENT:*   3
 ORIGIN    :   0.00000000D+00   0.00000000D+00   0.00000000D+00
 STATE     :       1
 
     1       -0.253955506E-21
 
 
 PROPERTY: MLTPV  2   COMPONENT:*   1
 ORIGIN    :   0.00000000D+00   0.00000000D+00   0.13406721D+00
 STATE     :       1
 
     1        0.167852256E-15
 
 
 PROPERTY: MLTPV  2   COMPONENT:*   2
 ORIGIN    :   0.00000000D+00   0.00000000D+00   0.13406721D+00
 STATE     :       1
 
     1        0.859420798E-23
 
 
 PROPERTY: MLTPV  2   COMPONENT:*   3
 ORIGIN    :   0.00000000D+00   0.00000000D+00   0.13406721D+00
 STATE     :       1
 
     1        0.214273703E-22
 
 
 PROPERTY: MLTPV  2   COMPONENT:*   4
 ORIGIN    :   0.00000000D+00   0.00000000D+00   0.13406721D+00
 STATE     :       1
 
     1        0.364769255E-15
 
 
 PROPERTY: MLTPV  2   COMPONENT:*   5
 ORIGIN    :   0.00000000D+00   0.00000000D+00   0.13406721D+00
 STATE     :       1
 
     1        0.107748716E-16
 
 
 PROPERTY: MLTPV  2   COMPONENT:*   6
 ORIGIN    :   0.00000000D+00   0.00000000D+00   0.13406721D+00
 STATE     :       1
 
     1        0.483962259E-15
 
--
 
::    RASSI State    1     Total energy:    -398.69153830550181
 
 
 
      ****************************************************************************************************
      *                                                                                                  *
      *                                         Spin-free section                                        *
      *                                                                                                  *
      *                 Note: index according to input order, order according to energy.                 *
      *                                                                                                  *
      ****************************************************************************************************
 
 
 
  SPIN-FREE ENERGIES:
[...]
 ###############################################################################
 ###                                                                         ###
 ###                                                                         ###
 ###    WARNING: EJOB used when HEFF is available, possible                  ###
 ###    extra interaction between states is ignored!                         ###
 ###                                                                         ###
 ###                                                                         ###
 ###############################################################################
 ###############################################################################
 
   The following data are common to all the states:
   ------------------------------------------------
   (note: frozen counts as inactive, deleted as secondary)
 
      Nr of irreps: 1
 
                 Total     No./Irrep 
      Irrep                  1
                             a
 
      INACTIVE       5       5
      ACTIVE         6       6
      SECONDARY     17      17
      BASIS         28      28
 
      RAS1           0       0
      RAS2           6       6
      RAS3           0       0
 
        MATRIX ELEMENTS WILL BE COMPUTED FOR THE FOLLOWING ONE-ELECTRON OPERATOR
 S, UNLESS ZERO BY SYMMETRY.
   (Herm=Hermitian, Anti=Antihermitian, Sing=Singlet operator, Trip=Triplet oper
 ator)
     MLTPL  0   1 (HERMSING)     MLTPL  0   1 (ANTITRIP)     MLTPL  1   1 (HERMSING)
     MLTPL  1   1 (ANTITRIP)     MLTPL  1   2 (HERMSING)     MLTPL  1   2 (ANTITRIP)
     MLTPL  1   3 (HERMSING)     MLTPL  1   3 (ANTITRIP)     MLTPL  2   1 (HERMSING)
     MLTPL  2   2 (HERMSING)     MLTPL  2   3 (HERMSING)     MLTPL  2   4 (HERMSING)
     MLTPL  2   5 (HERMSING)     MLTPL  2   6 (HERMSING)     VELOCITY   1 (ANTISING)
     VELOCITY   2 (ANTISING)     VELOCITY   3 (ANTISING)     ANGMOM     1 (ANTISING)
     ANGMOM     2 (ANTISING)     ANGMOM     3 (ANTISING)     MLTPV  2   1 (ANTISING)
     MLTPV  2   2 (ANTISING)     MLTPV  2   3 (ANTISING)     MLTPV  2   4 (ANTISING)
     MLTPV  2   5 (ANTISING)     MLTPV  2   6 (ANTISING)     AMFI       1 (ANTITRIP)
     AMFI       2 (ANTITRIP)     AMFI       3 (ANTITRIP)
 
       EIGENSTATES OF A SPIN-FREE HAMILTONIAN WILL BE COMPUTED BASED ON:
 
  a Hamiltonian matrix assumed to be diagonal with energies read from the wavefu
 nction file(s).
 
  SO coupling elements will be added.
 
        MATRIX ELEMENTS OVER SPIN EIGENSTATES FOR:
     MLTPL  0   1 (HERMSING)     MLTPL  0   1 (ANTITRIP)     MLTPL  1   1 (HERMSING)
     MLTPL  1   1 (ANTITRIP)     MLTPL  1   2 (HERMSING)     MLTPL  1   2 (ANTITRIP)
     MLTPL  1   3 (HERMSING)     MLTPL  1   3 (ANTITRIP)     MLTPL  2   1 (HERMSING)
     MLTPL  2   2 (HERMSING)     MLTPL  2   3 (HERMSING)     MLTPL  2   4 (HERMSING)
     MLTPL  2   5 (HERMSING)     MLTPL  2   6 (HERMSING)     VELOCITY   1 (ANTISING)
     VELOCITY   2 (ANTISING)     VELOCITY   3 (ANTISING)     ANGMOM     1 (ANTISING)
     ANGMOM     2 (ANTISING)     ANGMOM     3 (ANTISING)     MLTPV  2   1 (ANTISING)
     MLTPV  2   2 (ANTISING)     MLTPV  2   3 (ANTISING)     MLTPV  2   4 (ANTISING)
     MLTPV  2   5 (ANTISING)     MLTPV  2   6 (ANTISING)     AMFI       1 (ANTITRIP)
     AMFI       2 (ANTITRIP)     AMFI       3 (ANTITRIP)
 
       EIGENSTATES OF SPIN-ORBIT HAMILTONIAN WILL BE COMPUTED
 
  Nr of states:                     2
 
   State:        1   2
  JobIph:        1   2
 Root nr:        1   1
 
  HAMILTONIAN MATRIX FOR THE ORIGINAL STATES:
 
  Diagonal, with energies
   -398.69153830   -398.10968191
 
      OVERLAP MATRIX FOR THE ORIGINAL STATES:
 
  Diagonal, with elements
      1.00000000      1.00000000
 
++ Matrix elements for input states
   --------------------------------
 
  MATRIX ELEMENTS OF 1-ELECTRON OPERATORS
  FOR THE RASSCF INPUT WAVE FUNCTIONS:
 
 
 PROPERTY: MLTPL  0   COMPONENT:*   1
 ORIGIN    :   0.00000000D+00   0.00000000D+00   0.00000000D+00
 STATE     :       1                2
 
     1       -0.113686838E-12   0.00000000    
     2         0.00000000       1.00000000    
 
 
 PROPERTY: MLTPL  0   COMPONENT:*   1
 ORIGIN    :   0.00000000D+00   0.00000000D+00   0.00000000D+00
 STATE     :       1                2
 
     1         18.0000000       0.00000000    
     2         0.00000000       18.0000000    
 
 
 PROPERTY: MLTPL  1   COMPONENT:*   1
 ORIGIN    :   0.00000000D+00   0.00000000D+00   0.00000000D+00
 STATE     :       1                2
 
     1       -0.348652495E-06   0.00000000    
     2         0.00000000      0.728942152E-07
 
 
 PROPERTY: MLTPL  1   COMPONENT:*   1
 ORIGIN    :   0.00000000D+00   0.00000000D+00   0.00000000D+00
 STATE     :       1                2
 
     1         0.00000000       0.00000000    
     2         0.00000000     -0.213742256E-22
 
 
 PROPERTY: MLTPL  1   COMPONENT:*   2
 ORIGIN    :   0.00000000D+00   0.00000000D+00   0.00000000D+00
 STATE     :       1                2
 
     1       -0.280538703E-09   0.00000000    
     2         0.00000000      0.523543742E-08
 
 
 PROPERTY: MLTPL  1   COMPONENT:*   2
 ORIGIN    :   0.00000000D+00   0.00000000D+00   0.00000000D+00
 STATE     :       1                2
 
     1         0.00000000       0.00000000    
     2         0.00000000     -0.923735302E-16
 
 
 PROPERTY: MLTPL  1   COMPONENT:*   3
 ORIGIN    :   0.00000000D+00   0.00000000D+00   0.00000000D+00
 STATE     :       1                2
 
     1        0.361649692       0.00000000    
     2         0.00000000      0.685970732    
 
 
 PROPERTY: MLTPL  1   COMPONENT:*   3
 ORIGIN    :   0.00000000D+00   0.00000000D+00   0.00000000D+00
 STATE     :       1                2
 
     1         4.49627072       0.00000000    
     2         0.00000000       4.49627072    
 
 
 PROPERTY: MLTPL  2   COMPONENT:*   1
 ORIGIN    :   0.00000000D+00   0.00000000D+00   0.13406721D+00
 STATE     :       1                2
 
     1        -12.4208975       0.00000000    
     2         0.00000000      -8.59196812    
 
 
 PROPERTY: MLTPL  2   COMPONENT:*   2
 ORIGIN    :   0.00000000D+00   0.00000000D+00   0.13406721D+00
 STATE     :       1                2
 
     1        0.928614925E-06   0.00000000    
     2         0.00000000     -0.622232058E-06
 
 
 PROPERTY: MLTPL  2   COMPONENT:*   3
 ORIGIN    :   0.00000000D+00   0.00000000D+00   0.13406721D+00
 STATE     :       1                2
 
     1       -0.224540314E-06   0.00000000    
     2         0.00000000      0.680379621E-06
 
 
 PROPERTY: MLTPL  2   COMPONENT:*   4
 ORIGIN    :   0.00000000D+00   0.00000000D+00   0.13406721D+00
 STATE     :       1                2
 
     1        -9.86826702       0.00000000    
     2         0.00000000      -8.06262941    
 
 
 PROPERTY: MLTPL  2   COMPONENT:*   5
 ORIGIN    :   0.00000000D+00   0.00000000D+00   0.13406721D+00
 STATE     :       1                2
 
     1        0.102853503E-08   0.00000000    
     2         0.00000000      0.134839784E-07
 
 
 PROPERTY: MLTPL  2   COMPONENT:*   6
 ORIGIN    :   0.00000000D+00   0.00000000D+00   0.13406721D+00
 STATE     :       1                2
 
     1        -9.69552199       0.00000000    
     2         0.00000000      -8.38219629    
 
 
 PROPERTY: VELOCITY   COMPONENT:*   1
 ORIGIN    :   0.00000000D+00   0.00000000D+00   0.00000000D+00
 STATE     :       1                2
 
     1        0.806985966E-22   0.00000000    
     2         0.00000000      0.291223885E-24
 
 
 PROPERTY: VELOCITY   COMPONENT:*   2
 ORIGIN    :   0.00000000D+00   0.00000000D+00   0.00000000D+00
 STATE     :       1                2
 
     1       -0.273597083E-16   0.00000000    
     2         0.00000000     -0.134229011E-16
 
 
 PROPERTY: VELOCITY   COMPONENT:*   3
 ORIGIN    :   0.00000000D+00   0.00000000D+00   0.00000000D+00
 STATE     :       1                2
 
     1       -0.197753875E-15   0.00000000    
     2         0.00000000      0.170181058E-16
 
 
 PROPERTY: ANGMOM     COMPONENT:*   1
 ORIGIN    :   0.00000000D+00   0.00000000D+00   0.00000000D+00
 STATE     :       1                2
 
     1       -0.804573135E-16   0.00000000    
     2         0.00000000     -0.750541765E-16
 
 
 PROPERTY: ANGMOM     COMPONENT:*   2
 ORIGIN    :   0.00000000D+00   0.00000000D+00   0.00000000D+00
 STATE     :       1                2
 
     1       -0.218943639E-21   0.00000000    
     2         0.00000000     -0.461602925E-21
 
 
 PROPERTY: ANGMOM     COMPONENT:*   3
 ORIGIN    :   0.00000000D+00   0.00000000D+00   0.00000000D+00
 STATE     :       1                2
 
     1       -0.253955506E-21   0.00000000    
     2         0.00000000      0.673245649E-20
 
 
 PROPERTY: MLTPV  2   COMPONENT:*   1
 ORIGIN    :   0.00000000D+00   0.00000000D+00   0.13406721D+00
 STATE     :       1                2
 
     1        0.167852256E-15   0.00000000    
     2         0.00000000     -0.395424614E-16
 
 
 PROPERTY: MLTPV  2   COMPONENT:*   2
 ORIGIN    :   0.00000000D+00   0.00000000D+00   0.13406721D+00
 STATE     :       1                2
 
     1        0.859420798E-23   0.00000000    
     2         0.00000000      0.555788619E-22
 
 
 PROPERTY: MLTPV  2   COMPONENT:*   3
 ORIGIN    :   0.00000000D+00   0.00000000D+00   0.13406721D+00
 STATE     :       1                2
 
     1        0.214273703E-22   0.00000000    
     2         0.00000000     -0.270149047E-22
 
 
 PROPERTY: MLTPV  2   COMPONENT:*   4
 ORIGIN    :   0.00000000D+00   0.00000000D+00   0.13406721D+00
 STATE     :       1                2
 
     1        0.364769255E-15   0.00000000    
     2         0.00000000     -0.109575412E-15
 
 
 PROPERTY: MLTPV  2   COMPONENT:*   5
 ORIGIN    :   0.00000000D+00   0.00000000D+00   0.13406721D+00
 STATE     :       1                2
 
     1        0.107748716E-16   0.00000000    
     2         0.00000000     -0.782945154E-16
 
 
 PROPERTY: MLTPV  2   COMPONENT:*   6
 ORIGIN    :   0.00000000D+00   0.00000000D+00   0.13406721D+00
 STATE     :       1                2
 
     1        0.483962259E-15   0.00000000    
     2         0.00000000     -0.373137441E-16
 
 
 PROPERTY: AMFI       COMPONENT:*   1
 ORIGIN    :   0.00000000D+00   0.00000000D+00   0.00000000D+00
 STATE     :       1                2
 
     1         0.00000000       0.00000000    
     2         0.00000000      0.110106149E-28
 
 
 PROPERTY: AMFI       COMPONENT:*   2
 ORIGIN    :   0.00000000D+00   0.00000000D+00   0.00000000D+00
 STATE     :       1                2
 
     1         0.00000000       0.00000000    
     2         0.00000000      0.372315411E-25
 
 
 PROPERTY: AMFI       COMPONENT:*   3
 ORIGIN    :   0.00000000D+00   0.00000000D+00   0.00000000D+00
 STATE     :       1                2
 
     1         0.00000000       0.00000000    
     2         0.00000000      0.847307252E-25
 
--
 
::    RASSI State    1     Total energy:    -398.69153830429201
::    RASSI State    2     Total energy:    -398.10968191393198
 
 
 
      ****************************************************************************************************
      *                                                                                                  *
      *                                         Spin-free section                                        *
      *                                                                                                  *
      *                 Note: index according to input order, order according to energy.                 *
      *                                                                                                  *
      ****************************************************************************************************
 
 
 
  SPIN-FREE ENERGIES:
  (Shifted by EMIN (a.u.) =       -398.6915383043)
 
 SF State       Relative EMIN(au)   Rel lowest level(eV)    D:o, cm**(-1)
 
     1             0.0000000000        0.0000000000              0.0000
     2             0.5818563904       15.8331189778         127702.7168
 
++ Dipole transition strengths (spin-free states):
   -----------------------------------------------
     for osc. strength at least  1.00000000E-05
 
  ( Max oscillator strength is only   0.000000000000000E+000 )
--
 
++ Velocity transition strengths (spin-free states):
   -------------------------------------------------
     for osc. strength at least  1.00000000E-05
 
  ( Max oscillator strength is only   0.000000000000000E+000 )
--
 
++ Length and velocity gauge comparison (spin-free states):
   --------------------------------------------------------
 
 --------------------------------------------------
 A comparison between the dipole oscillator strengths in 
 length and velocity gauge will be performed
 
     All dipole oscillator differences above the tolerance of   1.00000000E-01  will be printed 
 
 Due to basis set deficiency these oscillator may be problematic 
 
 The tolerance is defined as ABS(1-O_l/O_v) 
 O_l : dipole oscillator strength in length gauge
 O_p : dipole oscillator strength in velocity gauge
 --------------------------------------------------
 
 No problematic oscillator strengths above the tolerance 
  0.100000000000000       have been found
 
--
 
 Electric-dipole - electric-octupole not included
 Electric-dipole - magnetic-quadrupole not included
 
 
 
      ****************************************************************************************************
      *                                                                                                  *
      *                                         Spin-orbit section                                       *
      *                                                                                                  *
      ****************************************************************************************************
 
 
 Complex SO-Hamiltonian matrix elements over
 spin components of spin-free eigenstates (SFS):
 (In cm-1. Print threshold:      0.000 cm-1)
 ----------------------------------------------------------------------
 
  I1  S1  MS1    I2  S2  MS2    Real part    Imag part      Absolute
     1  0.0  0.0    1  0.0  0.0         0.000         0.000         0.000
     2  1.5 -1.5    1  0.0  0.0         0.000         0.000         0.000
     2  1.5 -1.5    2  1.5 -1.5         0.000        -0.000         0.000
     3  1.5 -0.5    1  0.0  0.0         0.000         0.000         0.000
     3  1.5 -0.5    2  1.5 -1.5         0.000         0.000         0.000
     3  1.5 -0.5    3  1.5 -0.5         0.000        -0.000         0.000
     4  1.5  0.5    1  0.0  0.0         0.000         0.000         0.000
     4  1.5  0.5    2  1.5 -1.5         0.000         0.000         0.000
     4  1.5  0.5    3  1.5 -0.5         0.000         0.000         0.000
     4  1.5  0.5    4  1.5  0.5         0.000         0.000         0.000
     5  1.5  1.5    1  0.0  0.0         0.000         0.000         0.000
     5  1.5  1.5    2  1.5 -1.5         0.000         0.000         0.000
     5  1.5  1.5    3  1.5 -0.5         0.000         0.000         0.000
     5  1.5  1.5    4  1.5  0.5         0.000         0.000         0.000
     5  1.5  1.5    5  1.5  1.5         0.000         0.000         0.000
 ----------------------------------------------------------------------
 
       Total energies including SO-coupling:
::    SO-RASSI State    1     Total energy:    -398.69153830429201
::    SO-RASSI State    2     Total energy:    -398.10968191393198
::    SO-RASSI State    3     Total energy:    -398.10968191393198
::    SO-RASSI State    4     Total energy:    -398.10968191393198
::    SO-RASSI State    5     Total energy:    -398.10968191393198
 
 
   Eigenvalues of complex Hamiltonian:
   -----------------------------------
  (Shifted by EMIN (a.u.) =       -398.6915383043)
 
 SO State       Relative EMIN(au)   Rel lowest level(eV)    D:o, cm**(-1)
 
     1             0.0000000000        0.0000000000              0.0000
     2             0.5818563904       15.8331189778         127702.7168
     3             0.5818563904       15.8331189778         127702.7168
     4             0.5818563904       15.8331189778         127702.7168
     5             0.5818563904       15.8331189778         127702.7168
 
 
 Weights of the five most important spin-orbit-free states for each spin-orbit s
 tate.
 
 SO State  Total energy (au)           Spin-free states, spin, and weights
 -------------------------------------------------------------------------------
 ------------------------
    1         0.000000       1 0.0  1.0000    2 1.5  0.0000
    2         0.581856       2 1.5  1.0000    1 0.0  0.0000
    3         0.581856       2 1.5  1.0000    1 0.0  0.0000
    4         0.581856       2 1.5  1.0000    1 0.0  0.0000
    5         0.581856       2 1.5  1.0000    1 0.0  0.0000
 -------------------------------------------------------------------------------
 ------------------------
 
 
      ****************************************************************************************************
      *                                                                                                  *
      *                                    Special properties section                                    *
      *                                                                                                  *
      ****************************************************************************************************
 
 
++ Length and velocity gauge comparison (SO states):
 
 --------------------------------------------------
 A comparison between the dipole oscillator strengths in 
 length and velocity gauge will be performed
 
     All dipole oscillator differences above the tolerance of   1.00000000E-01  will be printed 
 
 Due to basis set deficiency these oscillator may be problematic 
 
 The tolerance is defined as ABS(1-O_l/O_v) 
 O_l : dipole oscillator strength in length gauge
 O_p : dipole oscillator strength in velocity gauge
 --------------------------------------------------
 
 No problematic oscillator strengths above the tolerance 
  0.100000000000000       have been found
 
--
 
 Electric-dipole - electric-octupole not included
++ I/O STATISTICS
 
  I. General I/O information
  - - - - - - - - - - - - - - - - - - - - - - - - - - - - - - - - - - - - - - - - - - -
  Unit  Name          Flsize      Write/Read            MBytes           Write/Read
                      (MBytes)       Calls              In/Out           Time, sec.
  - - - - - - - - - - - - - - - - - - - - - - - - - - - - - - - - - - - - - - - - - - -
   1  ANNI              0.00 .       0/       0 .      0.0/      0.0 .       0/       0
   2  RUNFILE           0.24 .     322/    1824 .      2.3/     13.3 .       0/       0
   3  ONEINT            1.46 .       0/     230 .      0.0/    217.8 .       0/       0
   4  JOB001            1.22 .       0/      39 .      0.0/      1.1 .       0/       0
   5  JOB002            1.22 .       0/      39 .      0.0/      1.1 .       0/       0
  - - - - - - - - - - - - - - - - - - - - - - - - - - - - - - - - - - - - - - - - - - -
   *  TOTAL             4.15 .     322/    2132 .      2.3/    233.3 .       0/       0
  - - - - - - - - - - - - - - - - - - - - - - - - - - - - - - - - - - - - - - - - - - -
 
  II. I/O Access Patterns
  - - - - - - - - - - - - - - - - - - - -
  Unit  Name               % of random
                         Write/Read calls
  - - - - - - - - - - - - - - - - - - - -
   1  ANNI                 0.0/   0.0
   2  RUNFILE             28.6/   9.9
   3  ONEINT               0.0/  97.0
   4  JOB001               0.0/  82.1
   5  JOB002               0.0/  82.1
  - - - - - - - - - - - - - - - - - - - -
--
--- Stop Module: rassi at Fri Mar 22 11:48:17 2024 /rc=_RC_ALL_IS_WELL_ ---

.##################.
.# Happy landing! #.
.##################.

    Timing: Wall=8.19 User=7.07 System=1.03
