   This run of MOLCAS is using the pymolcas driver

                             OPE
                             OPE          NMOL  CASOP  ENMOLC A   SO
                 OPE        NMOLC        AS  OP EN  MO LC     AS  OP
                OPENM       OL CA        SO  PE NM  OL CA     SOP EN
                OP EN      MO   LC       AS  OP ENMOL  CASO   PENMOL
                OP  EN     MO   LC       AS  OP EN     MO     LC ASO
               OP   E  NMOL  C  AS       OP  EN MO     LC     AS  OP
               OP  E   NMO   LC AS        OPEN  MO     LCASOP EN   M
               O  PEN   MO  LCA  SO
            OPE   NMO   L   CAS    OP
        OPENMOL  CASOP     ENMOL   CASOPE
     OPENMOLCA   SOPENMOLCASOPEN   MOLCASOPE
    OPENMOLCAS   OP           EN   MOL    CAS
    OPENMOLCAS       OP  ENM        O     LCA
    OPENMOLCAS    OPEN  MOLCASO     P  E  NMO
    OPENMOLCAS     OP               E  N  MOL
    OPENMOLCA   SO           PENM   O  L  CAS    OPEN    MO    LCAS
    OPENMOLCA   SOP           ENM   O  L  CAS   OP  EN  MOLC  AS   O
    OPENMOLCA   SOPE           NM      O  LCA   S      OP  EN MO
    OPENMOLC                AS         O  PEN   M      OL  CA  SOPE
    OPENMO        LCASOPE  NMOL        C  ASO   P      ENMOLC     AS
    OPE     NMO      LCA  SO     P     E   NM   OL  CA SO  PE N   MO
          OPENMOLCA            SOPE   NMO        LCAS  O    P  ENMO
     OPENMOLCASOPENMOLCASOPENMOLCASOPENMOLCA
        OPENMOLCASOPENMOLCASOPENMOLCASOPE
            OPENMOLCASOPENMOLCASOPENM
               OPENMOLCASOPENMOLCA        version: v23.10
                   OPENMOLCASO
                       OPE                tag:

 OpenMolcas is free software; you can redistribute it and/or modify it
 under the terms of the GNU Lesser General Public License version 2.1.
 OpenMolcas is distributed in the hope that it will be useful, but it
 is provided "as is" and without any express or implied warranties.
 For more details see the full text of the license in the file
 LICENSE or in <http://www.gnu.org/licenses/>.

                 Copyright (C) The OpenMolcas Authors
           For the author list and the recommended citation,
                   consult the file CONTRIBUTORS.md

           *************************************************
           * pymolcas version py2.25                       *
           *   build 2b27fa14244bdc32cb1957e6230cd793      *
           *   (after the EMIL interpreter by V. Veryazov) *
           *************************************************

configuration info
------------------
Host name: manganese.itc.univie.ac.at (Linux)
C Compiler ID: Clang
C flags: -std=gnu99
Fortran Compiler ID: Intel
Fortran flags: -fpp -i8 -heap-arrays
Definitions: _MOLCAS_;_I8_;_LINUX_
Parallel: OFF (GA=OFF)


   ---------------------------------------------------------------------------
  |
  |           Project: MOLCAS
  |    Submitted from: /public/manganese/scratch/tmp/sascha.925337/WORK/master
  |      Scratch area: /public/manganese/scratch/tmp/sascha.925337/WORK/master
  |   Save outputs to: WORKDIR
  |            Molcas: /usr/license/openmolcas/v23.10
  |
  | Scratch area is NOT empty
  |
  |        MOLCASMEM = 10000
  |    MOLCAS_DRIVER = /usr/license/openmolcas/v23.10/pymolcas
  |    MOLCAS_NPROCS = 1
  |    MOLCAS_SOURCE = /usr/license/openmolcas/v23.10
  | MOLCAS_STRUCTURE = 0
  |
   ---------------------------------------------------------------------------

++ ---------   Input file   ---------

&GATEWAY
COORD=MOLCAS.xyz
GROUP=NOSYM
BASIS=cc-pvdz
AMFI
angmom
0 0 0
BASLIB
/user/sascha/development/eci/sharc_main/examples/SHARC_MOLCAS/basisset

RICD
CDTHreshold=0.0001

&SEWARD

>>> COPY /public/manganese/scratch/tmp/sascha.925337/SAVE/MOLCAS.1.JobIph.0 JOBOLD

&RASSCF
SPIN=1
NACTEL=8 0 0
INACTIVE=5
RAS2=6
ITERATIONS=200,100
CIROOT=6 6 1
ORBLISTING=NOTHING
PRWF=0.1
THRS=0.000000010000 0.000100000000 0.000100000000
JOBIPH

>>> COPY MOLCAS.rasscf.molden MOLCAS.1.molden

>>> COPY MOLCAS.JobIph MOLCAS.1.JobIph

>>> COPY /public/manganese/scratch/tmp/sascha.925337/SAVE/MOLCAS.2.JobIph.0 JOBOLD

&RASSCF
SPIN=2
NACTEL=7 0 0
INACTIVE=5
RAS2=6
ITERATIONS=200,100
CIROOT=4 4 1
ORBLISTING=NOTHING
PRWF=0.1
THRS=0.000000010000 0.000100000000 0.000100000000
JOBIPH

>>> COPY MOLCAS.rasscf.molden MOLCAS.2.molden

>>> COPY MOLCAS.JobIph MOLCAS.2.JobIph

>>> COPY /public/manganese/scratch/tmp/sascha.925337/SAVE/MOLCAS.3.JobIph.0 JOBOLD

&RASSCF
SPIN=3
NACTEL=8 0 0
INACTIVE=5
RAS2=6
ITERATIONS=200,100
CIROOT=4 4 1
ORBLISTING=NOTHING
PRWF=0.1
THRS=0.000000010000 0.000100000000 0.000100000000
JOBIPH

>>> COPY MOLCAS.rasscf.molden MOLCAS.3.molden

>>> COPY MOLCAS.JobIph MOLCAS.3.JobIph

>>> COPY /public/manganese/scratch/tmp/sascha.925337/SAVE/MOLCAS.4.JobIph.0 JOBOLD

&RASSCF
SPIN=4
NACTEL=7 0 0
INACTIVE=5
RAS2=6
ITERATIONS=200,100
CIROOT=4 4 1
ORBLISTING=NOTHING
PRWF=0.1
THRS=0.000000010000 0.000100000000 0.000100000000
JOBIPH

>>> COPY MOLCAS.rasscf.molden MOLCAS.4.molden

>>> COPY MOLCAS.JobIph MOLCAS.4.JobIph

>>> COPY /public/manganese/scratch/tmp/sascha.925337/SAVE/MOLCAS.1.JobIph.0 JOB001

>>> COPY MOLCAS.1.JobIph JOB002

&RASSI
NROFJOBIPHS
2 1 1
1
1
MEIN
OVERLAPS

>>> COPY MOLCAS.rassi.h5 MOLCAS.rassi.ovlp.1.h5

>>> COPY MOLCAS.1.JobIph JOB001

&RASSI
NROFJOBIPHS
1 1
1
MEIN

>>> COPY MOLCAS.rassi.h5 MOLCAS.rassi.1.h5

>>> COPY /public/manganese/scratch/tmp/sascha.925337/SAVE/MOLCAS.2.JobIph.0 JOB001

>>> COPY MOLCAS.2.JobIph JOB002

&RASSI
NROFJOBIPHS
2 1 1
1
1
MEIN
OVERLAPS

>>> COPY MOLCAS.rassi.h5 MOLCAS.rassi.ovlp.2.h5

>>> COPY MOLCAS.2.JobIph JOB001

&RASSI
NROFJOBIPHS
1 1
1
MEIN

>>> COPY MOLCAS.rassi.h5 MOLCAS.rassi.2.h5

>>> COPY /public/manganese/scratch/tmp/sascha.925337/SAVE/MOLCAS.3.JobIph.0 JOB001

>>> COPY MOLCAS.3.JobIph JOB002

&RASSI
NROFJOBIPHS
2 1 1
1
1
MEIN
OVERLAPS

>>> COPY MOLCAS.rassi.h5 MOLCAS.rassi.ovlp.3.h5

>>> COPY MOLCAS.3.JobIph JOB001

&RASSI
NROFJOBIPHS
1 1
1
MEIN

>>> COPY MOLCAS.rassi.h5 MOLCAS.rassi.3.h5

>>> COPY /public/manganese/scratch/tmp/sascha.925337/SAVE/MOLCAS.4.JobIph.0 JOB001

>>> COPY MOLCAS.4.JobIph JOB002

&RASSI
NROFJOBIPHS
2 1 1
1
1
MEIN
OVERLAPS

>>> COPY MOLCAS.rassi.h5 MOLCAS.rassi.ovlp.4.h5

>>> COPY MOLCAS.4.JobIph JOB001

&RASSI
NROFJOBIPHS
1 1
1
MEIN

>>> COPY MOLCAS.rassi.h5 MOLCAS.rassi.4.h5

>>> COPY MOLCAS.1.JobIph JOB001

>>> COPY MOLCAS.2.JobIph JOB002

>>> COPY MOLCAS.3.JobIph JOB003

>>> COPY MOLCAS.4.JobIph JOB004

&RASSI
NROFJOBIPHS
4 1 1 1 1
1
1
1
1
MEIN
SPINORBIT
SOCOUPLING=0.0d0
EJOB

-- ----------------------------------

--- Start Module: gateway at Fri Mar 22 11:42:12 2024 ---
 
()()()()()()()()()()()()()()()()()()()()()()()()()()()()()()()()()()()()()()()()()()()()()()()()()()

                                              &GATEWAY

                                   only a single process is used
                       available to each process: 10 GB of memory, 1 thread?
                                            pid: 1865228
()()()()()()()()()()()()()()()()()()()()()()()()()()()()()()()()()()()()()()()()()()()()()()()()()()
 
 
 
 Basis Set     1 Label: S.CC-PVDZ
 Basis set is read from library:/user/sascha/development/eci/sharc_main/examples/SHARC_MOLCAS/basisset 
 
 
 Basis Set     2 Label: H.CC-PVDZ
 Basis set is read from library:/user/sascha/development/eci/sharc_main/examples/SHARC_MOLCAS/basisset 
 
++    Symmetry information:
      ---------------------
 
                    Character Table for C1 
 
                             E  
                    a        1  x, y, xy, Rz, z, xz, Ry, yz, Rx, I
--
 
 
++    Basis set information:
      ----------------------
 
 
      Basis set label: S.CC-PVDZ.........
 
      Electronic valence basis set:
      ------------------
      Associated Effective Charge  16.000000 au
      Associated Actual Charge     16.000000 au
      Nuclear Model: Point charge
 
      Shell  nPrim  nBasis  Cartesian Spherical Contaminant
         s      12       4        X                  
         p       8       3        X                  
         d       1       1                 X         
 
 
      Basis set label: H.CC-PVDZ.........
 
      Electronic valence basis set:
      ------------------
      Associated Effective Charge   1.000000 au
      Associated Actual Charge      1.000000 au
      Nuclear Model: Point charge
 
      Shell  nPrim  nBasis  Cartesian Spherical Contaminant
         s       4       2        X                  
         p       1       1        X                  
--
 
 
++    Molecular structure info:
      -------------------------
 
                    ************************************************ 
                    **** Cartesian Coordinates / Bohr, Angstrom **** 
                    ************************************************ 
 
     Center  Label                x              y              z                     x              y              z
        1      S1               0.000000       0.000000       0.001589              0.000000       0.000000       0.000841
        2      H2               0.000000       1.842103       2.235421              0.000000       0.974799       1.182934
        3      H3               0.000000      -1.842103       2.235421              0.000000      -0.974799       1.182934
 
                    *************************************** 
                    *    InterNuclear Distances / Bohr    * 
                    *************************************** 
 
               1 S1            2 H2            3 H3    
    1 S1       0.000000
    2 H2       2.895401        0.000000
    3 H3       2.895401        3.684206        0.000000
 
                    ******************************************* 
                    *    InterNuclear Distances / Angstrom    * 
                    ******************************************* 
 
               1 S1            2 H2            3 H3    
    1 S1       0.000000
    2 H2       1.532180        0.000000
    3 H3       1.532180        1.949598        0.000000
 
                    ************************************** 
                    *    Valence Bond Angles / Degree    * 
                    ************************************** 
                          Atom centers                 Phi
                      2 H2       1 S1       3 H3        79.02
--
 
 
            Nuclear Potential Energy             11.32343694 au
 
--- Stop Module: gateway at Fri Mar 22 11:42:12 2024 /rc=_RC_ALL_IS_WELL_ ---

--- Start Module: seward at Fri Mar 22 11:42:12 2024 ---
 
()()()()()()()()()()()()()()()()()()()()()()()()()()()()()()()()()()()()()()()()()()()()()()()()()()

                                              &SEWARD

                                   only a single process is used
                       available to each process: 10 GB of memory, 1 thread?
                                            pid: 1865233
()()()()()()()()()()()()()()()()()()()()()()()()()()()()()()()()()()()()()()()()()()()()()()()()()()
 
               SEWARD will generate:
                  Multipole Moment integrals up to order  2
                  Kinetic Energy integrals
                  Nuclear Attraction integrals (point charge)
                  One-Electron Hamiltonian integrals
                  Velocity integrals
                  Orbital angular momentum around ( 0.0000  0.0000  0.0000 )
                  Velocity quadrupole around ( 0.0000  0.0000  0.1341 )
                  Atomic mean-field integrals
                  RI decomposed two-electron repulsion integrals stored Cholesky style
                   - acCD auxiliary basis
                   - CD Threshold:   0.10E-03
 
                   Integrals are discarded if absolute value <: 0.10E-13
                   Integral cutoff threshold is set to       <: 0.10E-15
 
            Nuclear Potential Energy             11.32343694 au
 
 
      Basis set specifications :
      Symmetry species         a  
      Basis functions           28
 
 
      Input file to MOLDEN was generated!
 
--- Stop Module: seward at Fri Mar 22 11:42:13 2024 /rc=_RC_ALL_IS_WELL_ ---

>>> COPY /public/manganese/scratch/tmp/sascha.925337/SAVE/MOLCAS.1.JobIph.0 JOBOLD

*** symbolic link created: INPORB -> MOLCAS.GssOrb
--- Start Module: rasscf at Fri Mar 22 11:42:13 2024 ---
 
()()()()()()()()()()()()()()()()()()()()()()()()()()()()()()()()()()()()()()()()()()()()()()()()()()

                                              &RASSCF

                                   only a single process is used
                       available to each process: 10 GB of memory, 1 thread?
                                            pid: 1865236
()()()()()()()()()()()()()()()()()()()()()()()()()()()()()()()()()()()()()()()()()()()()()()()()()()
 
 
      Header of the ONEINT file:
      --------------------------
      
      Integrals generated by Gateway/Seward, Fri Mar 22 11:42:12 2024
 
 
      OrdInt status: non-squared
 
 
      Cartesian coordinates in Angstrom:
      -----------------------------------------------------
      No.  Label        X            Y            Z        
      -----------------------------------------------------
       1   S1         0.00000000   0.00000000   0.00084100
       2   H2         0.00000000   0.97479900   1.18293400
       3   H3         0.00000000  -0.97479900   1.18293400
      -----------------------------------------------------
      Nuclear repulsion energy =   11.32343694
 
++    Wave function specifications:
      -----------------------------
 
      Number of closed shell electrons          10
      Number of electrons in active shells       8
      Max number of holes in RAS1 space          0
      Max nr of electrons in RAS3 space          0
      Number of inactive orbitals                5
      Number of active orbitals                  6
      Number of secondary orbitals              17
      Spin quantum number                      0.0
      State symmetry                             1
--
 
++    Orbital specifications:
      -----------------------
 
      Symmetry species                           1
                                                 a
      Frozen orbitals                            0
      Inactive orbitals                          5
      Active orbitals                            6
      RAS1 orbitals                              0
      RAS2 orbitals                              6
      RAS3 orbitals                              0
      Secondary orbitals                        17
      Deleted orbitals                           0
      Number of basis functions                 28
--
 
++    CI expansion specifications:
      ----------------------------
 
      Number of CSFs                           105
      Number of determinants                   120
      Number of root(s) required                 6
      Root chosen for geometry opt.              6
      CI roots used                              1     2     3     4     5     6
      weights                                0.167 0.167 0.167 0.167 0.167 0.167
      highest root included in the CI            6
      max. size of the explicit Hamiltonian    105
--
 
++    Optimization specifications:
      ----------------------------
 
      RASSCF algorithm: LK RI/DF
      Maximum number of macro iterations       200
      Maximum number of SX iterations          100
      Threshold for RASSCF energy            0.100E-07
      Threshold for max MO rotation          0.100E-03
      Threshold for max BLB element          0.100E-03
      Level shift parameter                  0.500E+00
      Make Quasi-Newton update
--
 
      The MO-coefficients are taken from the file:
      JOBOLD
      Title:(No title given)                                                        
 
      Total molecular charge    0.00
 
      ************************************************************************************************************************
      *                                                                                                                      *
      *                                            Wave function control section                                             *
      *                                                                                                                      *
      ************************************************************************************************************************
 
 
                                         RASSCF iterations: Energy and convergence statistics
                                         ----------------------------------------------------
 
      Iter CI   SX   CI       RASSCF       Energy    max ROT     max BLB   max BLB  Level Ln srch  Step   QN   Walltime
          iter iter root      energy       change     param      element    value   shift minimum  type update hh:mm:ss
 Nr of preliminary CI iterations:   1
        1   1    3    0  -398.44308900    0.00E+00  -0.56E-04    9  13 1  0.71E-04   0.00   0.00    SX    NO    0:00:00
        2   1    3    0  -398.44308903   -0.26E-07*  0.11E-04    9  13 1  0.16E-04   0.00   0.00    SX    NO    0:00:00
        3   1    2    0  -398.44308903   -0.36E-09  -0.26E-05    9  13 1  0.39E-05   0.00   0.00    SX    NO    0:00:00
        4   1    2    0  -398.44308903   -0.42E-10  -0.68E-06    9  13 1  0.10E-05   0.00   0.00    SX    NO    0:00:00
      Convergence after  4 iterations
        5   1    2    0  -398.44308903    0.80E-10  -0.68E-06    9  12 1  0.28E-06   0.00   0.00    SX    NO    0:00:00
 
      ************************************************************************************************************************
                                                      Wave function printout:
                       occupation of active orbitals, and spin coupling of open shells (u,d: Spin up or down)
      ************************************************************************************************************************
 
      Note: transformation to natural orbitals
      has been made, which may change the order of the CSFs.
 
      printout of CI-coefficients larger than  0.10 for root  1
      energy=    -398.691538
      conf/sym  111111     Coeff  Weight
             1  222200  -0.97171 0.94422
            15  2u22d0   0.10924 0.01193
            38  2ud2ud   0.10920 0.01192
 
      printout of CI-coefficients larger than  0.10 for root  2
      energy=    -398.508200
      conf/sym  111111     Coeff  Weight
             2  222ud0   0.97539 0.95140
            10  22udud   0.10906 0.01189
 
      printout of CI-coefficients larger than  0.10 for root  3
      energy=    -398.478575
      conf/sym  111111     Coeff  Weight
             4  222u0d  -0.96184 0.92514
             8  22ud20  -0.11302 0.01277
            18  2u2dud  -0.16520 0.02729
            51  202u2d  -0.10588 0.01121
 
      printout of CI-coefficients larger than  0.10 for root  4
      energy=    -398.351924
      conf/sym  111111     Coeff  Weight
             9  22u20d  -0.74345 0.55272
            15  2u22d0   0.59730 0.35677
            31  220220  -0.17634 0.03110
            52  202202   0.13930 0.01940
 
      printout of CI-coefficients larger than  0.10 for root  5
      energy=    -398.345878
      conf/sym  111111     Coeff  Weight
             7  22u2d0   0.67353 0.45365
            17  2u220d  -0.67543 0.45621
            32  2202ud   0.13691 0.01875
            37  2ud220  -0.14811 0.02194
            40  2ud202   0.15180 0.02304
            50  2022ud  -0.10075 0.01015
 
      printout of CI-coefficients larger than  0.10 for root  6
      energy=    -398.282419
      conf/sym  111111     Coeff  Weight
             7  22u2d0   0.69812 0.48737
            17  2u220d   0.69811 0.48736
 
      Natural orbitals and occupation numbers for root  1
      sym 1:   1.997304   1.961193   1.964608   1.998624   0.048336   0.029935
 
      Natural orbitals and occupation numbers for root  2
      sym 1:   1.998912   1.986432   1.961516   1.000000   0.999157   0.053982
 
      Natural orbitals and occupation numbers for root  3
      sym 1:   1.998795   1.940168   1.971877   1.000000   0.096915   0.992244
 
      Natural orbitals and occupation numbers for root  4
      sym 1:   1.977020   1.582919   1.363576   1.983678   0.471470   0.621338
 
      Natural orbitals and occupation numbers for root  5
      sym 1:   1.992380   1.465189   1.450376   1.997413   0.550774   0.543869
 
      Natural orbitals and occupation numbers for root  6
      sym 1:   1.990636   1.498251   1.485250   1.998508   0.523339   0.504015
 
      ************************************************************************************************************************
      *                                                                                                                      *
      *                                                    Final results                                                     *
      *                                                                                                                      *
      ************************************************************************************************************************
 
 
++    Wave function specifications:
      -----------------------------
 
      Number of closed shell electrons          10
      Number of electrons in active shells       8
      Max number of holes in RAS1 space          0
      Max nr of electrons in RAS3 space          0
      Number of inactive orbitals                5
      Number of active orbitals                  6
      Number of secondary orbitals              17
      Spin quantum number                      0.0
      State symmetry                             1
--
 
++    Orbital specifications:
      -----------------------
 
      Symmetry species                           1
                                                 a
      Frozen orbitals                            0
      Inactive orbitals                          5
      Active orbitals                            6
      RAS1 orbitals                              0
      RAS2 orbitals                              6
      RAS3 orbitals                              0
      Secondary orbitals                        17
      Deleted orbitals                           0
      Number of basis functions                 28
--
 
++    CI expansion specifications:
      ----------------------------
 
      Number of CSFs                           105
      Number of determinants                   120
      Number of root(s) required                 6
      CI roots used                              1     2     3     4     5     6
      weights                                0.167 0.167 0.167 0.167 0.167 0.167
      highest root included in the CI            6
      Root passed to geometry opt.               6
--
 
++    Final optimization conditions:
      ------------------------------
 
      Average CI energy                            -398.44308903
      RASSCF energy for state  6                   -398.28241941
      Super-CI energy                                -0.00000000
      RASSCF energy change                            0.00000000
      Max change in MO coefficients              -0.166E-05
      Max non-diagonal density matrix element    -0.685E-06
      Maximum BLB matrix element                  0.278E-06
      (orbital pair   9,  12 in symmetry   1)
      Norm of electronic gradient            0.933E-01
--
 
 
      Final state energy(ies):
      ------------------------
 
::    RASSCF root number  1 Total energy:   -398.69153830
::    RASSCF root number  2 Total energy:   -398.50819965
::    RASSCF root number  3 Total energy:   -398.47857528
::    RASSCF root number  4 Total energy:   -398.35192376
::    RASSCF root number  5 Total energy:   -398.34587777
::    RASSCF root number  6 Total energy:   -398.28241941
      Von Neumann Entropy (Root   1) =  0.27649
 

      Mulliken population analysis for root number:  1
      -----------------------------------------------
 
 
++    Molecular charges:
      ------------------
 
      Mulliken charges per centre
      ---------------------------
 
                S1      H2      H3    
      Total   16.1051  0.9475  0.9475
 
      N-E     -0.1051  0.0525  0.0525
 
      Total electronic charge=   18.000000
 
      Total            charge=   -0.000000
--
 
 

      Expectation values of various properties for root number:  1
      -----------------------------------------------------------
 
 
++    Molecular properties:
      ---------------------
 
      Charge (e):
                      =   -0.0000
      Dipole Moment (Debye):
      Origin of the operator (Ang)=    0.0000    0.0000    0.0000
                   X= -8.8619E-07               Y= -7.1302E-10               Z=  9.1922E-01           Total=  9.1922E-01
      Quadrupole Moment (Debye*Ang):
      Origin of the operator (Ang)=    0.0000    0.0000    0.0709
                  XX= -1.6707E+01              XY=  1.2490E-06              XZ= -3.0201E-07              YY= -1.3273E+01
                  YZ=  1.3835E-09              ZZ= -1.3041E+01
      In traceless form (Debye*Ang)
                  XX= -3.5495E+00              XY=  1.8735E-06              XZ= -4.5302E-07              YY=  1.6005E+00
                  YZ=  2.0752E-09              ZZ=  1.9490E+00
--
 
      Von Neumann Entropy (Root   2) =  1.17888
 

      Mulliken population analysis for root number:  2
      -----------------------------------------------
 
 
++    Molecular charges:
      ------------------
 
      Mulliken charges per centre
      ---------------------------
 
                S1      H2      H3    
      Total   15.9281  1.0359  1.0359
 
      N-E      0.0719 -0.0359 -0.0359
 
      Total electronic charge=   18.000000
 
      Total            charge=   -0.000000
--
 
 

      Expectation values of various properties for root number:  2
      -----------------------------------------------------------
 
 
++    Molecular properties:
      ---------------------
 
      Charge (e):
                      =   -0.0000
      Dipole Moment (Debye):
      Origin of the operator (Ang)=    0.0000    0.0000    0.0000
                   X=  6.7458E-07               Y= -3.4081E-08               Z= -1.9428E-02           Total=  1.9428E-02
      Quadrupole Moment (Debye*Ang):
      Origin of the operator (Ang)=    0.0000    0.0000    0.0709
                  XX= -1.4008E+01              XY=  8.1366E-07              XZ= -3.5868E-08              YY= -1.6871E+01
                  YZ= -7.9781E-08              ZZ= -1.6417E+01
      In traceless form (Debye*Ang)
                  XX=  2.6359E+00              XY=  1.2205E-06              XZ= -5.3803E-08              YY= -1.6591E+00
                  YZ= -1.1967E-07              ZZ= -9.7683E-01
--
 
      Von Neumann Entropy (Root   3) =  1.27683
 

      Mulliken population analysis for root number:  3
      -----------------------------------------------
 
 
++    Molecular charges:
      ------------------
 
      Mulliken charges per centre
      ---------------------------
 
                S1      H2      H3    
      Total   15.8158  1.0921  1.0921
 
      N-E      0.1842 -0.0921 -0.0921
 
      Total electronic charge=   18.000000
 
      Total            charge=   -0.000000
--
 
 

      Expectation values of various properties for root number:  3
      -----------------------------------------------------------
 
 
++    Molecular properties:
      ---------------------
 
      Charge (e):
                      =   -0.0000
      Dipole Moment (Debye):
      Origin of the operator (Ang)=    0.0000    0.0000    0.0000
                   X=  6.1331E-07               Y=  6.2425E-10               Z= -1.1945E+00           Total=  1.1945E+00
      Quadrupole Moment (Debye*Ang):
      Origin of the operator (Ang)=    0.0000    0.0000    0.0709
                  XX= -1.4459E+01              XY=  6.6344E-07              XZ= -2.3879E-07              YY= -1.6936E+01
                  YZ=  2.8505E-08              ZZ= -1.8846E+01
      In traceless form (Debye*Ang)
                  XX=  3.4315E+00              XY=  9.9516E-07              XZ= -3.5819E-07              YY= -2.8333E-01
                  YZ=  4.2757E-08              ZZ= -3.1481E+00
--
 
      Von Neumann Entropy (Root   4) =  1.68742
 

      Mulliken population analysis for root number:  4
      -----------------------------------------------
 
 
++    Molecular charges:
      ------------------
 
      Mulliken charges per centre
      ---------------------------
 
                S1      H2      H3    
      Total   16.0051  0.9974  0.9974
 
      N-E     -0.0051  0.0026  0.0026
 
      Total electronic charge=   18.000000
 
      Total            charge=   -0.000000
--
 
 

      Expectation values of various properties for root number:  4
      -----------------------------------------------------------
 
 
++    Molecular properties:
      ---------------------
 
      Charge (e):
                      =   -0.0000
      Dipole Moment (Debye):
      Origin of the operator (Ang)=    0.0000    0.0000    0.0000
                   X= -1.2480E-06               Y= -1.8864E-07               Z= -3.7520E-01           Total=  3.7520E-01
      Quadrupole Moment (Debye*Ang):
      Origin of the operator (Ang)=    0.0000    0.0000    0.0709
                  XX= -1.7069E+01              XY=  1.1228E-06              XZ= -4.4684E-07              YY= -1.5655E+01
                  YZ= -5.0790E-07              ZZ= -1.5962E+01
      In traceless form (Debye*Ang)
                  XX= -1.2610E+00              XY=  1.6842E-06              XZ= -6.7027E-07              YY=  8.6085E-01
                  YZ= -7.6185E-07              ZZ=  4.0019E-01
--
 
      Von Neumann Entropy (Root   5) =  1.69562
 

      Mulliken population analysis for root number:  5
      -----------------------------------------------
 
 
++    Molecular charges:
      ------------------
 
      Mulliken charges per centre
      ---------------------------
 
                S1      H2      H3    
      Total   16.0417  0.9791  0.9791
 
      N-E     -0.0417  0.0209  0.0209
 
      Total electronic charge=   18.000000
 
      Total            charge=   -0.000000
--
 
 

      Expectation values of various properties for root number:  5
      -----------------------------------------------------------
 
 
++    Molecular properties:
      ---------------------
 
      Charge (e):
                      =   -0.0000
      Dipole Moment (Debye):
      Origin of the operator (Ang)=    0.0000    0.0000    0.0000
                   X= -1.2532E-06               Y=  1.6060E-07               Z= -8.1170E-03           Total=  8.1170E-03
      Quadrupole Moment (Debye*Ang):
      Origin of the operator (Ang)=    0.0000    0.0000    0.0709
                  XX= -1.7107E+01              XY=  1.3380E-06              XZ= -3.8208E-07              YY= -1.5351E+01
                  YZ=  4.6116E-07              ZZ= -1.5933E+01
      In traceless form (Debye*Ang)
                  XX= -1.4648E+00              XY=  2.0070E-06              XZ= -5.7312E-07              YY=  1.1692E+00
                  YZ=  6.9173E-07              ZZ=  2.9555E-01
--
 
      Von Neumann Entropy (Root   6) =  1.64602
 

      Mulliken population analysis for root number:  6
      -----------------------------------------------
 
 
++    Molecular charges:
      ------------------
 
      Mulliken charges per centre
      ---------------------------
 
                S1      H2      H3    
      Total   16.0055  0.9973  0.9973
 
      N-E     -0.0055  0.0027  0.0027
 
      Total electronic charge=   18.000000
 
      Total            charge=   -0.000000
--
 
 

      Expectation values of various properties for root number:  6
      -----------------------------------------------------------
 
 
++    Molecular properties:
      ---------------------
 
      Charge (e):
                      =   -0.0000
      Dipole Moment (Debye):
      Origin of the operator (Ang)=    0.0000    0.0000    0.0000
                   X= -1.2276E-06               Y= -3.1395E-08               Z=  3.6480E-01           Total=  3.6480E-01
      Quadrupole Moment (Debye*Ang):
      Origin of the operator (Ang)=    0.0000    0.0000    0.0709
                  XX= -1.7067E+01              XY=  1.2581E-06              XZ= -4.1492E-07              YY= -1.5251E+01
                  YZ= -8.5629E-08              ZZ= -1.5770E+01
      In traceless form (Debye*Ang)
                  XX= -1.5569E+00              XY=  1.8872E-06              XZ= -6.2237E-07              YY=  1.1678E+00
                  YZ= -1.2844E-07              ZZ=  3.8913E-01
--
 
 
      Input file to MOLDEN was generated!
 
 
      Input file to MOLDEN was generated!
 
 
      Input file to MOLDEN was generated!
 
 
      Input file to MOLDEN was generated!
 
 
      Input file to MOLDEN was generated!
 
 
      Input file to MOLDEN was generated!
 
 
      Input file to MOLDEN was generated!
 
      Average orbitals are written to the RASORB file
      Natural orbitals for root   1 are written to the RASORB.1 file
      Natural orbitals for root   2 are written to the RASORB.2 file
      Natural orbitals for root   3 are written to the RASORB.3 file
      Natural orbitals for root   4 are written to the RASORB.4 file
      Natural orbitals for root   5 are written to the RASORB.5 file
      Natural orbitals for root   6 are written to the RASORB.6 file
      Spin density orbitals for root   1 are written to the SPDORB.1 file
      Spin density orbitals for root   2 are written to the SPDORB.2 file
      Spin density orbitals for root   3 are written to the SPDORB.3 file
      Spin density orbitals for root   4 are written to the SPDORB.4 file
      Spin density orbitals for root   5 are written to the SPDORB.5 file
      Spin density orbitals for root   6 are written to the SPDORB.6 file
 
--- Stop Module: rasscf at Fri Mar 22 11:42:15 2024 /rc=_RC_ALL_IS_WELL_ ---
--- Module rasscf spent 2 seconds ---

>>> COPY MOLCAS.rasscf.molden MOLCAS.1.molden

>>> COPY MOLCAS.JobIph MOLCAS.1.JobIph

>>> COPY /public/manganese/scratch/tmp/sascha.925337/SAVE/MOLCAS.2.JobIph.0 JOBOLD

*** symbolic link created: INPORB -> MOLCAS.RasOrb
--- Start Module: rasscf at Fri Mar 22 11:42:15 2024 ---
 
()()()()()()()()()()()()()()()()()()()()()()()()()()()()()()()()()()()()()()()()()()()()()()()()()()

                                              &RASSCF

                                   only a single process is used
                       available to each process: 10 GB of memory, 1 thread?
                                            pid: 1865246
()()()()()()()()()()()()()()()()()()()()()()()()()()()()()()()()()()()()()()()()()()()()()()()()()()
 
 
      Header of the ONEINT file:
      --------------------------
      
      Integrals generated by Gateway/Seward, Fri Mar 22 11:42:12 2024
 
 
      OrdInt status: non-squared
 
 
      Cartesian coordinates in Angstrom:
      -----------------------------------------------------
      No.  Label        X            Y            Z        
      -----------------------------------------------------
       1   S1         0.00000000   0.00000000   0.00084100
       2   H2         0.00000000   0.97479900   1.18293400
       3   H3         0.00000000  -0.97479900   1.18293400
      -----------------------------------------------------
      Nuclear repulsion energy =   11.32343694
 
++    Wave function specifications:
      -----------------------------
 
      Number of closed shell electrons          10
      Number of electrons in active shells       7
      Max number of holes in RAS1 space          0
      Max nr of electrons in RAS3 space          0
      Number of inactive orbitals                5
      Number of active orbitals                  6
      Number of secondary orbitals              17
      Spin quantum number                      0.5
      State symmetry                             1
--
 
++    Orbital specifications:
      -----------------------
 
      Symmetry species                           1
                                                 a
      Frozen orbitals                            0
      Inactive orbitals                          5
      Active orbitals                            6
      RAS1 orbitals                              0
      RAS2 orbitals                              6
      RAS3 orbitals                              0
      Secondary orbitals                        17
      Deleted orbitals                           0
      Number of basis functions                 28
--
 
++    CI expansion specifications:
      ----------------------------
 
      Number of CSFs                           210
      Number of determinants                   300
      Number of root(s) required                 4
      Root chosen for geometry opt.              4
      CI roots used                              1     2     3     4
      weights                                0.250 0.250 0.250 0.250
      highest root included in the CI            4
      max. size of the explicit Hamiltonian    200
--
 
++    Optimization specifications:
      ----------------------------
 
      RASSCF algorithm: LK RI/DF
      Maximum number of macro iterations       200
      Maximum number of SX iterations          100
      Threshold for RASSCF energy            0.100E-07
      Threshold for max MO rotation          0.100E-03
      Threshold for max BLB element          0.100E-03
      Level shift parameter                  0.500E+00
      Make Quasi-Newton update
--
 
      The MO-coefficients are taken from the file:
      JOBOLD
      Title:(No title given)                                                        
 
      Total molecular charge    1.00
 
      ************************************************************************************************************************
      *                                                                                                                      *
      *                                            Wave function control section                                             *
      *                                                                                                                      *
      ************************************************************************************************************************
 
 
                                         RASSCF iterations: Energy and convergence statistics
                                         ----------------------------------------------------
 
      Iter CI   SX   CI       RASSCF       Energy    max ROT     max BLB   max BLB  Level Ln srch  Step   QN   Walltime
          iter iter root      energy       change     param      element    value   shift minimum  type update hh:mm:ss
 Nr of preliminary CI iterations:   3
        1   1    3    0  -398.22922416    0.00E+00   0.92E-04    7  26 1 -0.63E-04   0.00   0.00    SX    NO    0:00:00
        2   1    3    0  -398.22922418   -0.19E-07*  0.31E-04    7  17 1  0.84E-05   0.00   0.00    SX    NO    0:00:00
        3   1    3    0  -398.22922418   -0.72E-09   0.11E-04    8  17 1 -0.21E-05   0.00   0.00    SX    NO    0:00:00
        4   4    3    0  -398.22922457   -0.39E-06*  0.63E-04    6  27 1 -0.15E-04   0.00   0.00    SX    NO    0:00:00
        5   1    3    0  -398.22922457   -0.15E-08  -0.29E-04    8  14 1 -0.29E-05   0.00   1.20    QN   YES    0:00:00
      Convergence after  5 iterations
        6   1    3    0  -398.22922457   -0.53E-10  -0.29E-04    8  20 1  0.65E-06   0.00   1.20    QN   YES    0:00:00
 
      ************************************************************************************************************************
                                                      Wave function printout:
                       occupation of active orbitals, and spin coupling of open shells (u,d: Spin up or down)
      ************************************************************************************************************************
 
      Note: transformation to natural orbitals
      has been made, which may change the order of the CSFs.
 
      printout of CI-coefficients larger than  0.10 for root  1
      energy=    -398.367701
      conf/sym  111111     Coeff  Weight
             1  222u00  -0.97373 0.94814
            44  2uduud  -0.10404 0.01082
            56  202u20  -0.10752 0.01156
 
      printout of CI-coefficients larger than  0.10 for root  2
      energy=    -398.233635
      conf/sym  111111     Coeff  Weight
             4  22u200  -0.97389 0.94846
           124  20u220  -0.10828 0.01172
 
      printout of CI-coefficients larger than  0.10 for root  3
      energy=    -398.220619
      conf/sym  111111     Coeff  Weight
            13  2u2200   0.96107 0.92365
            41  2ud20u  -0.12304 0.01514
            55  2022u0  -0.10655 0.01135
 
      printout of CI-coefficients larger than  0.10 for root  4
      energy=    -398.094943
      conf/sym  111111     Coeff  Weight
             2  2220u0   0.95501 0.91204
            11  22u0ud  -0.12520 0.01568
            16  2u2020  -0.12952 0.01678
 
      Natural orbitals and occupation numbers for root  1
      sym 1:   1.994887   1.949420   1.958169   1.000000   0.059656   0.037867
 
      Natural orbitals and occupation numbers for root  2
      sym 1:   1.979337   1.938115   1.006422   1.998398   0.047471   0.030258
 
      Natural orbitals and occupation numbers for root  3
      sym 1:   1.986200   1.013666   1.932827   1.981524   0.049382   0.036401
 
      Natural orbitals and occupation numbers for root  4
      sym 1:   1.977379   1.971992   1.951002   0.048802   0.992339   0.058487
 
      ************************************************************************************************************************
      *                                                                                                                      *
      *                                                    Final results                                                     *
      *                                                                                                                      *
      ************************************************************************************************************************
 
 
++    Wave function specifications:
      -----------------------------
 
      Number of closed shell electrons          10
      Number of electrons in active shells       7
      Max number of holes in RAS1 space          0
      Max nr of electrons in RAS3 space          0
      Number of inactive orbitals                5
      Number of active orbitals                  6
      Number of secondary orbitals              17
      Spin quantum number                      0.5
      State symmetry                             1
--
 
++    Orbital specifications:
      -----------------------
 
      Symmetry species                           1
                                                 a
      Frozen orbitals                            0
      Inactive orbitals                          5
      Active orbitals                            6
      RAS1 orbitals                              0
      RAS2 orbitals                              6
      RAS3 orbitals                              0
      Secondary orbitals                        17
      Deleted orbitals                           0
      Number of basis functions                 28
--
 
++    CI expansion specifications:
      ----------------------------
 
      Number of CSFs                           210
      Number of determinants                   300
      Number of root(s) required                 4
      CI roots used                              1     2     3     4
      weights                                0.250 0.250 0.250 0.250
      highest root included in the CI            4
      Root passed to geometry opt.               4
--
 
++    Final optimization conditions:
      ------------------------------
 
      Average CI energy                            -398.22922457
      RASSCF energy for state  4                   -398.09494348
      Super-CI energy                                -0.00000000
      RASSCF energy change                            0.00000000
      Max change in MO coefficients               0.134E-03
      Max non-diagonal density matrix element    -0.293E-04
      Maximum BLB matrix element                  0.651E-06
      (orbital pair   8,  20 in symmetry   1)
      Norm of electronic gradient            0.802E-01
--
 
 
      Final state energy(ies):
      ------------------------
 
::    RASSCF root number  1 Total energy:   -398.36770065
::    RASSCF root number  2 Total energy:   -398.23363525
::    RASSCF root number  3 Total energy:   -398.22061892
::    RASSCF root number  4 Total energy:   -398.09494348
      Von Neumann Entropy (Root   1) =  0.82906
 

      Mulliken population analysis for root number:  1
      -----------------------------------------------
 
 
++    Molecular charges:
      ------------------
 
      Mulliken charges per centre
      ---------------------------
 
                S1      H2      H3    
      Total   15.4687  0.7656  0.7656
 
      N-E      0.5313  0.2344  0.2344
 
      Total electronic charge=   17.000000
 
      Total            charge=    1.000000
--
 
 

      Expectation values of various properties for root number:  1
      -----------------------------------------------------------
 
 
++    Molecular properties:
      ---------------------
 
      Charge (e):
                      =    1.0000
      Dipole Moment (Debye):
      Origin of the operator (Ang)=    0.0000    0.0000    0.0000
                   X= -1.8557E-06               Y=  6.1121E-08               Z=  2.5258E+00           Total=  2.5258E+00
      Center of Charge (Ang)
                     X=   -0.00000039               Y=    0.00000001               Z=    0.52586597
      Quadrupole Moment (Debye*Ang):
      Origin of the operator (Ang)=    0.0000    0.0000    0.0709
                  XX= -1.1671E+01              XY= -1.5515E-06              XZ=  1.6052E-06              YY= -9.5838E+00
                  YZ=  1.7636E-07              ZZ= -8.8309E+00
      In traceless form (Debye*Ang)
                  XX= -2.4639E+00              XY= -2.3273E-06              XZ=  2.4078E-06              YY=  6.6727E-01
                  YZ=  2.6454E-07              ZZ=  1.7967E+00
--
 

      Mulliken spin population analysis for root number:  1
      ---------------------------------------------------
 
 
++    Molecular charges:
      ------------------
 
      Mulliken spin population per centre
      ---------------------------
 
                S1      H2      H3    
      Total    1.1013 -0.0507 -0.0507
 
      Total electronic spin=    1.000000
--
 
 
      Von Neumann Entropy (Root   2) =  0.77806
 

      Mulliken population analysis for root number:  2
      -----------------------------------------------
 
 
++    Molecular charges:
      ------------------
 
      Mulliken charges per centre
      ---------------------------
 
                S1      H2      H3    
      Total   15.6234  0.6883  0.6883
 
      N-E      0.3766  0.3117  0.3117
 
      Total electronic charge=   17.000000
 
      Total            charge=    1.000000
--
 
 

      Expectation values of various properties for root number:  2
      -----------------------------------------------------------
 
 
++    Molecular properties:
      ---------------------
 
      Charge (e):
                      =    1.0000
      Dipole Moment (Debye):
      Origin of the operator (Ang)=    0.0000    0.0000    0.0000
                   X=  4.1998E-06               Y=  1.3314E-07               Z=  2.5093E+00           Total=  2.5093E+00
      Center of Charge (Ang)
                     X=    0.00000087               Y=    0.00000003               Z=    0.52242756
      Quadrupole Moment (Debye*Ang):
      Origin of the operator (Ang)=    0.0000    0.0000    0.0709
                  XX= -1.4203E+01              XY= -4.0111E-06              XZ= -7.5704E-07              YY= -9.0083E+00
                  YZ=  3.3186E-07              ZZ= -6.2129E+00
      In traceless form (Debye*Ang)
                  XX= -6.5925E+00              XY= -6.0167E-06              XZ= -1.1356E-06              YY=  1.1997E+00
                  YZ=  4.9779E-07              ZZ=  5.3928E+00
--
 

      Mulliken spin population analysis for root number:  2
      ---------------------------------------------------
 
 
++    Molecular charges:
      ------------------
 
      Mulliken spin population per centre
      ---------------------------
 
                S1      H2      H3    
      Total    0.6670  0.1665  0.1665
 
      Total electronic spin=    1.000000
--
 
 
      Von Neumann Entropy (Root   3) =  0.80477
 

      Mulliken population analysis for root number:  3
      -----------------------------------------------
 
 
++    Molecular charges:
      ------------------
 
      Mulliken charges per centre
      ---------------------------
 
                S1      H2      H3    
      Total   15.6193  0.6903  0.6903
 
      N-E      0.3807  0.3097  0.3097
 
      Total electronic charge=   17.000000
 
      Total            charge=    1.000000
--
 
 

      Expectation values of various properties for root number:  3
      -----------------------------------------------------------
 
 
++    Molecular properties:
      ---------------------
 
      Charge (e):
                      =    1.0000
      Dipole Moment (Debye):
      Origin of the operator (Ang)=    0.0000    0.0000    0.0000
                   X=  4.2388E-06               Y=  1.0913E-07               Z=  3.4427E+00           Total=  3.4427E+00
      Center of Charge (Ang)
                     X=    0.00000088               Y=    0.00000002               Z=    0.71675396
      Quadrupole Moment (Debye*Ang):
      Origin of the operator (Ang)=    0.0000    0.0000    0.0709
                  XX= -1.4285E+01              XY=  2.4583E-06              XZ= -4.8834E-06              YY= -7.2759E+00
                  YZ=  2.0062E-08              ZZ= -8.1670E+00
      In traceless form (Debye*Ang)
                  XX= -6.5640E+00              XY=  3.6874E-06              XZ= -7.3251E-06              YY=  3.9503E+00
                  YZ=  3.0092E-08              ZZ=  2.6137E+00
--
 

      Mulliken spin population analysis for root number:  3
      ---------------------------------------------------
 
 
++    Molecular charges:
      ------------------
 
      Mulliken spin population per centre
      ---------------------------
 
                S1      H2      H3    
      Total    0.4069  0.2966  0.2966
 
      Total electronic spin=    1.000000
--
 
 
      Von Neumann Entropy (Root   4) =  0.85260
 

      Mulliken population analysis for root number:  4
      -----------------------------------------------
 
 
++    Molecular charges:
      ------------------
 
      Mulliken charges per centre
      ---------------------------
 
                S1      H2      H3    
      Total   15.1962  0.9019  0.9019
 
      N-E      0.8038  0.0981  0.0981
 
      Total electronic charge=   17.000000
 
      Total            charge=    1.000000
--
 
 

      Expectation values of various properties for root number:  4
      -----------------------------------------------------------
 
 
++    Molecular properties:
      ---------------------
 
      Charge (e):
                      =    1.0000
      Dipole Moment (Debye):
      Origin of the operator (Ang)=    0.0000    0.0000    0.0000
                   X=  1.0034E-05               Y=  1.4847E-06               Z=  1.4125E+00           Total=  1.4125E+00
      Center of Charge (Ang)
                     X=    0.00000209               Y=    0.00000031               Z=    0.29407454
      Quadrupole Moment (Debye*Ang):
      Origin of the operator (Ang)=    0.0000    0.0000    0.0709
                  XX= -9.1448E+00              XY=  2.8721E-05              XZ= -3.8081E-05              YY= -1.2371E+01
                  YZ=  3.4908E-06              ZZ= -1.1565E+01
      In traceless form (Debye*Ang)
                  XX=  2.8230E+00              XY=  4.3082E-05              XZ= -5.7121E-05              YY= -2.0163E+00
                  YZ=  5.2361E-06              ZZ= -8.0670E-01
--
 

      Mulliken spin population analysis for root number:  4
      ---------------------------------------------------
 
 
++    Molecular charges:
      ------------------
 
      Mulliken spin population per centre
      ---------------------------
 
                S1      H2      H3    
      Total    0.2338  0.3831  0.3831
 
      Total electronic spin=    1.000000
--
 
 
 
      Input file to MOLDEN was generated!
 
 
      Input file to MOLDEN was generated!
 
 
      Input file to MOLDEN was generated!
 
 
      Input file to MOLDEN was generated!
 
 
      Input file to MOLDEN was generated!
 
      Average orbitals are written to the RASORB file
      Natural orbitals for root   1 are written to the RASORB.1 file
      Natural orbitals for root   2 are written to the RASORB.2 file
      Natural orbitals for root   3 are written to the RASORB.3 file
      Natural orbitals for root   4 are written to the RASORB.4 file
      Spin density orbitals for root   1 are written to the SPDORB.1 file
      Spin density orbitals for root   2 are written to the SPDORB.2 file
      Spin density orbitals for root   3 are written to the SPDORB.3 file
      Spin density orbitals for root   4 are written to the SPDORB.4 file
 
--- Stop Module: rasscf at Fri Mar 22 11:42:17 2024 /rc=_RC_ALL_IS_WELL_ ---
--- Module rasscf spent 2 seconds ---

>>> COPY MOLCAS.rasscf.molden MOLCAS.2.molden

>>> COPY MOLCAS.JobIph MOLCAS.2.JobIph

>>> COPY /public/manganese/scratch/tmp/sascha.925337/SAVE/MOLCAS.3.JobIph.0 JOBOLD

*** symbolic link created: INPORB -> MOLCAS.RasOrb
--- Start Module: rasscf at Fri Mar 22 11:42:17 2024 ---
 
()()()()()()()()()()()()()()()()()()()()()()()()()()()()()()()()()()()()()()()()()()()()()()()()()()

                                              &RASSCF

                                   only a single process is used
                       available to each process: 10 GB of memory, 1 thread?
                                            pid: 1865447
()()()()()()()()()()()()()()()()()()()()()()()()()()()()()()()()()()()()()()()()()()()()()()()()()()
 
 
      Header of the ONEINT file:
      --------------------------
      
      Integrals generated by Gateway/Seward, Fri Mar 22 11:42:12 2024
 
 
      OrdInt status: non-squared
 
 
      Cartesian coordinates in Angstrom:
      -----------------------------------------------------
      No.  Label        X            Y            Z        
      -----------------------------------------------------
       1   S1         0.00000000   0.00000000   0.00084100
       2   H2         0.00000000   0.97479900   1.18293400
       3   H3         0.00000000  -0.97479900   1.18293400
      -----------------------------------------------------
      Nuclear repulsion energy =   11.32343694
 
++    Wave function specifications:
      -----------------------------
 
      Number of closed shell electrons          10
      Number of electrons in active shells       8
      Max number of holes in RAS1 space          0
      Max nr of electrons in RAS3 space          0
      Number of inactive orbitals                5
      Number of active orbitals                  6
      Number of secondary orbitals              17
      Spin quantum number                      1.0
      State symmetry                             1
--
 
++    Orbital specifications:
      -----------------------
 
      Symmetry species                           1
                                                 a
      Frozen orbitals                            0
      Inactive orbitals                          5
      Active orbitals                            6
      RAS1 orbitals                              0
      RAS2 orbitals                              6
      RAS3 orbitals                              0
      Secondary orbitals                        17
      Deleted orbitals                           0
      Number of basis functions                 28
--
 
++    CI expansion specifications:
      ----------------------------
 
      Number of CSFs                           105
      Number of determinants                   120
      Number of root(s) required                 4
      Root chosen for geometry opt.              4
      CI roots used                              1     2     3     4
      weights                                0.250 0.250 0.250 0.250
      highest root included in the CI            4
      max. size of the explicit Hamiltonian    105
--
 
++    Optimization specifications:
      ----------------------------
 
      RASSCF algorithm: LK RI/DF
      Maximum number of macro iterations       200
      Maximum number of SX iterations          100
      Threshold for RASSCF energy            0.100E-07
      Threshold for max MO rotation          0.100E-03
      Threshold for max BLB element          0.100E-03
      Level shift parameter                  0.500E+00
      Make Quasi-Newton update
--
 
      The MO-coefficients are taken from the file:
      JOBOLD
      Title:(No title given)                                                        
 
      Total molecular charge    0.00
 
      ************************************************************************************************************************
      *                                                                                                                      *
      *                                            Wave function control section                                             *
      *                                                                                                                      *
      ************************************************************************************************************************
 
 
                                         RASSCF iterations: Energy and convergence statistics
                                         ----------------------------------------------------
 
      Iter CI   SX   CI       RASSCF       Energy    max ROT     max BLB   max BLB  Level Ln srch  Step   QN   Walltime
          iter iter root      energy       change     param      element    value   shift minimum  type update hh:mm:ss
 Nr of preliminary CI iterations:   1
        1   1    3    0  -398.48269694    0.00E+00   0.69E-04    9  27 1  0.61E-04   0.00   0.00    SX    NO    0:00:00
        2   1    3    0  -398.48269696   -0.24E-07*  0.12E-04    9  13 1  0.12E-04   0.00   0.00    SX    NO    0:00:00
        3   1    2    0  -398.48269696   -0.14E-09  -0.24E-05    9  13 1  0.28E-05   0.00   0.00    SX    NO    0:00:00
        4   1    2    0  -398.48269696   -0.67E-10  -0.53E-06    9  13 1  0.68E-06   0.00   0.00    SX    NO    0:00:00
      Convergence after  4 iterations
        5   1    2    0  -398.48269696   -0.35E-11  -0.53E-06    9  13 1  0.17E-06   0.00   0.00    SX    NO    0:00:00
 
      ************************************************************************************************************************
                                                      Wave function printout:
                       occupation of active orbitals, and spin coupling of open shells (u,d: Spin up or down)
      ************************************************************************************************************************
 
      Note: transformation to natural orbitals
      has been made, which may change the order of the CSFs.
 
      printout of CI-coefficients larger than  0.10 for root  1
      energy=    -398.529038
      conf/sym  111111     Coeff  Weight
             1  222uu0  -0.97738 0.95527
            20  2u2u02   0.10001 0.01000
 
      printout of CI-coefficients larger than  0.10 for root  2
      energy=    -398.503040
      conf/sym  111111     Coeff  Weight
             2  222u0u  -0.96699 0.93507
             5  22uu20   0.13125 0.01723
            19  2u2uud   0.12538 0.01572
            41  202u2u  -0.10354 0.01072
 
      printout of CI-coefficients larger than  0.10 for root  3
      energy=    -398.450486
      conf/sym  111111     Coeff  Weight
             6  22u20u  -0.54845 0.30080
            13  2u22u0  -0.81580 0.66552
 
      printout of CI-coefficients larger than  0.10 for root  4
      energy=    -398.448224
      conf/sym  111111     Coeff  Weight
             4  22u2u0  -0.84673 0.71695
            15  2u220u  -0.49944 0.24944
 
      Natural orbitals and occupation numbers for root  1
      sym 1:   1.997192   1.976355   1.965610   1.000000   0.998883   0.061960
 
      Natural orbitals and occupation numbers for root  2
      sym 1:   1.998658   1.952718   1.962623   1.000000   0.096568   0.989434
 
      Natural orbitals and occupation numbers for root  3
      sym 1:   1.994667   1.297135   1.663347   1.998941   0.708288   0.337623
 
      Natural orbitals and occupation numbers for root  4
      sym 1:   1.993135   1.718208   1.244375   1.997907   0.759096   0.287279
 
      ************************************************************************************************************************
      *                                                                                                                      *
      *                                                    Final results                                                     *
      *                                                                                                                      *
      ************************************************************************************************************************
 
 
++    Wave function specifications:
      -----------------------------
 
      Number of closed shell electrons          10
      Number of electrons in active shells       8
      Max number of holes in RAS1 space          0
      Max nr of electrons in RAS3 space          0
      Number of inactive orbitals                5
      Number of active orbitals                  6
      Number of secondary orbitals              17
      Spin quantum number                      1.0
      State symmetry                             1
--
 
++    Orbital specifications:
      -----------------------
 
      Symmetry species                           1
                                                 a
      Frozen orbitals                            0
      Inactive orbitals                          5
      Active orbitals                            6
      RAS1 orbitals                              0
      RAS2 orbitals                              6
      RAS3 orbitals                              0
      Secondary orbitals                        17
      Deleted orbitals                           0
      Number of basis functions                 28
--
 
++    CI expansion specifications:
      ----------------------------
 
      Number of CSFs                           105
      Number of determinants                   120
      Number of root(s) required                 4
      CI roots used                              1     2     3     4
      weights                                0.250 0.250 0.250 0.250
      highest root included in the CI            4
      Root passed to geometry opt.               4
--
 
++    Final optimization conditions:
      ------------------------------
 
      Average CI energy                            -398.48269696
      RASSCF energy for state  4                   -398.44822403
      Super-CI energy                                -0.00000000
      RASSCF energy change                           -0.00000000
      Max change in MO coefficients              -0.153E-05
      Max non-diagonal density matrix element    -0.526E-06
      Maximum BLB matrix element                  0.165E-06
      (orbital pair   9,  13 in symmetry   1)
      Norm of electronic gradient            0.553E-01
--
 
 
      Final state energy(ies):
      ------------------------
 
::    RASSCF root number  1 Total energy:   -398.52903760
::    RASSCF root number  2 Total energy:   -398.50304049
::    RASSCF root number  3 Total energy:   -398.45048572
::    RASSCF root number  4 Total energy:   -398.44822403
      Von Neumann Entropy (Root   1) =  1.19911
 

      Mulliken population analysis for root number:  1
      -----------------------------------------------
 
 
++    Molecular charges:
      ------------------
 
      Mulliken charges per centre
      ---------------------------
 
                S1      H2      H3    
      Total   15.8778  1.0611  1.0611
 
      N-E      0.1222 -0.0611 -0.0611
 
      Total electronic charge=   18.000000
 
      Total            charge=   -0.000000
--
 
 

      Expectation values of various properties for root number:  1
      -----------------------------------------------------------
 
 
++    Molecular properties:
      ---------------------
 
      Charge (e):
                      =   -0.0000
      Dipole Moment (Debye):
      Origin of the operator (Ang)=    0.0000    0.0000    0.0000
                   X=  8.1765E-08               Y= -8.0650E-09               Z= -1.4980E-01           Total=  1.4980E-01
      Quadrupole Moment (Debye*Ang):
      Origin of the operator (Ang)=    0.0000    0.0000    0.0709
                  XX= -1.3838E+01              XY=  3.2363E-07              XZ=  1.9992E-08              YY= -1.6644E+01
                  YZ= -1.9848E-08              ZZ= -1.6337E+01
      In traceless form (Debye*Ang)
                  XX=  2.6524E+00              XY=  4.8544E-07              XZ=  2.9988E-08              YY= -1.5562E+00
                  YZ= -2.9772E-08              ZZ= -1.0962E+00
--
 

      Mulliken spin population analysis for root number:  1
      ---------------------------------------------------
 
 
++    Molecular charges:
      ------------------
 
      Mulliken spin population per centre
      ---------------------------
 
                S1      H2      H3    
      Total    1.3467  0.3266  0.3266
 
      Total electronic spin=    2.000000
--
 
 
      Von Neumann Entropy (Root   2) =  1.27479
 

      Mulliken population analysis for root number:  2
      -----------------------------------------------
 
 
++    Molecular charges:
      ------------------
 
      Mulliken charges per centre
      ---------------------------
 
                S1      H2      H3    
      Total   15.7744  1.1128  1.1128
 
      N-E      0.2256 -0.1128 -0.1128
 
      Total electronic charge=   18.000000
 
      Total            charge=   -0.000000
--
 
 

      Expectation values of various properties for root number:  2
      -----------------------------------------------------------
 
 
++    Molecular properties:
      ---------------------
 
      Charge (e):
                      =   -0.0000
      Dipole Moment (Debye):
      Origin of the operator (Ang)=    0.0000    0.0000    0.0000
                   X= -1.6501E-07               Y=  3.9389E-09               Z= -8.9435E-01           Total=  8.9435E-01
      Quadrupole Moment (Debye*Ang):
      Origin of the operator (Ang)=    0.0000    0.0000    0.0709
                  XX= -1.4180E+01              XY=  3.3616E-07              XZ= -5.1805E-09              YY= -1.6503E+01
                  YZ=  1.3066E-08              ZZ= -1.8070E+01
      In traceless form (Debye*Ang)
                  XX=  3.1066E+00              XY=  5.0424E-07              XZ= -7.7707E-09              YY= -3.7787E-01
                  YZ=  1.9599E-08              ZZ= -2.7287E+00
--
 

      Mulliken spin population analysis for root number:  2
      ---------------------------------------------------
 
 
++    Molecular charges:
      ------------------
 
      Mulliken spin population per centre
      ---------------------------
 
                S1      H2      H3    
      Total    1.2018  0.3991  0.3991
 
      Total electronic spin=    2.000000
--
 
 
      Von Neumann Entropy (Root   3) =  1.59452
 

      Mulliken population analysis for root number:  3
      -----------------------------------------------
 
 
++    Molecular charges:
      ------------------
 
      Mulliken charges per centre
      ---------------------------
 
                S1      H2      H3    
      Total   16.0583  0.9708  0.9708
 
      N-E     -0.0583  0.0292  0.0292
 
      Total electronic charge=   18.000000
 
      Total            charge=   -0.000000
--
 
 

      Expectation values of various properties for root number:  3
      -----------------------------------------------------------
 
 
++    Molecular properties:
      ---------------------
 
      Charge (e):
                      =   -0.0000
      Dipole Moment (Debye):
      Origin of the operator (Ang)=    0.0000    0.0000    0.0000
                   X= -7.9900E-07               Y= -5.2215E-09               Z=  5.1138E-01           Total=  5.1138E-01
      Quadrupole Moment (Debye*Ang):
      Origin of the operator (Ang)=    0.0000    0.0000    0.0709
                  XX= -1.6810E+01              XY=  3.3736E-07              XZ=  5.7657E-08              YY= -1.4522E+01
                  YZ= -9.4564E-09              ZZ= -1.5269E+01
      In traceless form (Debye*Ang)
                  XX= -1.9149E+00              XY=  5.0604E-07              XZ=  8.6486E-08              YY=  1.5176E+00
                  YZ= -1.4185E-08              ZZ=  3.9732E-01
--
 

      Mulliken spin population analysis for root number:  3
      ---------------------------------------------------
 
 
++    Molecular charges:
      ------------------
 
      Mulliken spin population per centre
      ---------------------------
 
                S1      H2      H3    
      Total    0.9882  0.5059  0.5059
 
      Total electronic spin=    2.000000
--
 
 
      Von Neumann Entropy (Root   4) =  1.55320
 

      Mulliken population analysis for root number:  4
      -----------------------------------------------
 
 
++    Molecular charges:
      ------------------
 
      Mulliken charges per centre
      ---------------------------
 
                S1      H2      H3    
      Total   16.0264  0.9868  0.9868
 
      N-E     -0.0264  0.0132  0.0132
 
      Total electronic charge=   18.000000
 
      Total            charge=   -0.000000
--
 
 

      Expectation values of various properties for root number:  4
      -----------------------------------------------------------
 
 
++    Molecular properties:
      ---------------------
 
      Charge (e):
                      =   -0.0000
      Dipole Moment (Debye):
      Origin of the operator (Ang)=    0.0000    0.0000    0.0000
                   X= -8.0495E-07               Y=  1.2773E-09               Z= -1.0748E-01           Total=  1.0748E-01
      Quadrupole Moment (Debye*Ang):
      Origin of the operator (Ang)=    0.0000    0.0000    0.0709
                  XX= -1.6717E+01              XY=  3.8320E-07              XZ=  1.2558E-07              YY= -1.5479E+01
                  YZ=  1.7857E-09              ZZ= -1.4375E+01
      In traceless form (Debye*Ang)
                  XX= -1.7902E+00              XY=  5.7480E-07              XZ=  1.8838E-07              YY=  6.7254E-02
                  YZ=  2.6786E-09              ZZ=  1.7229E+00
--
 

      Mulliken spin population analysis for root number:  4
      ---------------------------------------------------
 
 
++    Molecular charges:
      ------------------
 
      Mulliken spin population per centre
      ---------------------------
 
                S1      H2      H3    
      Total    1.1357  0.4322  0.4322
 
      Total electronic spin=    2.000000
--
 
 
 
      Input file to MOLDEN was generated!
 
 
      Input file to MOLDEN was generated!
 
 
      Input file to MOLDEN was generated!
 
 
      Input file to MOLDEN was generated!
 
 
      Input file to MOLDEN was generated!
 
      Average orbitals are written to the RASORB file
      Natural orbitals for root   1 are written to the RASORB.1 file
      Natural orbitals for root   2 are written to the RASORB.2 file
      Natural orbitals for root   3 are written to the RASORB.3 file
      Natural orbitals for root   4 are written to the RASORB.4 file
      Spin density orbitals for root   1 are written to the SPDORB.1 file
      Spin density orbitals for root   2 are written to the SPDORB.2 file
      Spin density orbitals for root   3 are written to the SPDORB.3 file
      Spin density orbitals for root   4 are written to the SPDORB.4 file
 
--- Stop Module: rasscf at Fri Mar 22 11:42:19 2024 /rc=_RC_ALL_IS_WELL_ ---
--- Module rasscf spent 2 seconds ---

>>> COPY MOLCAS.rasscf.molden MOLCAS.3.molden

>>> COPY MOLCAS.JobIph MOLCAS.3.JobIph

>>> COPY /public/manganese/scratch/tmp/sascha.925337/SAVE/MOLCAS.4.JobIph.0 JOBOLD

*** symbolic link created: INPORB -> MOLCAS.RasOrb
--- Start Module: rasscf at Fri Mar 22 11:42:19 2024 ---
 
()()()()()()()()()()()()()()()()()()()()()()()()()()()()()()()()()()()()()()()()()()()()()()()()()()

                                              &RASSCF

                                   only a single process is used
                       available to each process: 10 GB of memory, 1 thread?
                                            pid: 1865456
()()()()()()()()()()()()()()()()()()()()()()()()()()()()()()()()()()()()()()()()()()()()()()()()()()
 
 
      Header of the ONEINT file:
      --------------------------
      
      Integrals generated by Gateway/Seward, Fri Mar 22 11:42:12 2024
 
 
      OrdInt status: non-squared
 
 
      Cartesian coordinates in Angstrom:
      -----------------------------------------------------
      No.  Label        X            Y            Z        
      -----------------------------------------------------
       1   S1         0.00000000   0.00000000   0.00084100
       2   H2         0.00000000   0.97479900   1.18293400
       3   H3         0.00000000  -0.97479900   1.18293400
      -----------------------------------------------------
      Nuclear repulsion energy =   11.32343694
 
++    Wave function specifications:
      -----------------------------
 
      Number of closed shell electrons          10
      Number of electrons in active shells       7
      Max number of holes in RAS1 space          0
      Max nr of electrons in RAS3 space          0
      Number of inactive orbitals                5
      Number of active orbitals                  6
      Number of secondary orbitals              17
      Spin quantum number                      1.5
      State symmetry                             1
--
 
++    Orbital specifications:
      -----------------------
 
      Symmetry species                           1
                                                 a
      Frozen orbitals                            0
      Inactive orbitals                          5
      Active orbitals                            6
      RAS1 orbitals                              0
      RAS2 orbitals                              6
      RAS3 orbitals                              0
      Secondary orbitals                        17
      Deleted orbitals                           0
      Number of basis functions                 28
--
 
++    CI expansion specifications:
      ----------------------------
 
      Number of CSFs                            84
      Number of determinants                    90
      Number of root(s) required                 4
      Root chosen for geometry opt.              4
      CI roots used                              1     2     3     4
      weights                                0.250 0.250 0.250 0.250
      highest root included in the CI            4
      max. size of the explicit Hamiltonian     84
--
 
++    Optimization specifications:
      ----------------------------
 
      RASSCF algorithm: LK RI/DF
      Maximum number of macro iterations       200
      Maximum number of SX iterations          100
      Threshold for RASSCF energy            0.100E-07
      Threshold for max MO rotation          0.100E-03
      Threshold for max BLB element          0.100E-03
      Level shift parameter                  0.500E+00
      Make Quasi-Newton update
--
 
      The MO-coefficients are taken from the file:
      JOBOLD
      Title:(No title given)                                                        
 
      Total molecular charge    1.00
 
      ************************************************************************************************************************
      *                                                                                                                      *
      *                                            Wave function control section                                             *
      *                                                                                                                      *
      ************************************************************************************************************************
 
 
                                         RASSCF iterations: Energy and convergence statistics
                                         ----------------------------------------------------
 
      Iter CI   SX   CI       RASSCF       Energy    max ROT     max BLB   max BLB  Level Ln srch  Step   QN   Walltime
          iter iter root      energy       change     param      element    value   shift minimum  type update hh:mm:ss
 Nr of preliminary CI iterations:   1
        1   1    3    0  -398.06070862    0.00E+00   0.83E-04    6  23 1  0.50E-04   0.01   0.00    SX    NO    0:00:00
        2   1    3    0  -398.06070865   -0.24E-07* -0.20E-04   11  17 1 -0.70E-05   0.01   0.00    SX    NO    0:00:00
        3   1    2    0  -398.06070865   -0.58E-09  -0.54E-05   11  17 1 -0.19E-05   0.01   0.00    SX    NO    0:00:00
        4   1    2    0  -398.06070865   -0.37E-10  -0.15E-05   11  17 1 -0.55E-06   0.01   0.00    SX    NO    0:00:00
      Convergence after  4 iterations
        5   1    2    0  -398.06070865   -0.28E-11  -0.15E-05   11  17 1 -0.17E-06   0.01   0.00    SX    NO    0:00:00
 
      ************************************************************************************************************************
                                                      Wave function printout:
                       occupation of active orbitals, and spin coupling of open shells (u,d: Spin up or down)
      ************************************************************************************************************************
 
      Note: transformation to natural orbitals
      has been made, which may change the order of the CSFs.
 
      printout of CI-coefficients larger than  0.10 for root  1
      energy=    -398.109682
      conf/sym  111111     Coeff  Weight
             2  22uu0u   0.52149 0.27195
             4  2u2uu0   0.83119 0.69087
 
      printout of CI-coefficients larger than  0.10 for root  2
      energy=    -398.107381
      conf/sym  111111     Coeff  Weight
             1  22uuu0   0.86482 0.74792
             5  2u2u0u   0.47050 0.22137
 
      printout of CI-coefficients larger than  0.10 for root  3
      energy=    -398.013563
      conf/sym  111111     Coeff  Weight
             2  22uu0u  -0.82022 0.67277
             4  2u2uu0   0.51459 0.26481
            11  2uduuu   0.11479 0.01318
            22  2uuuud  -0.14199 0.02016
 
[...]
 ORIGIN    :   0.00000000D+00   0.00000000D+00   0.00000000D+00
 STATE     :       1                2                3                4
 
     1       -0.804573135E-16   0.00000000      0.832605878E-24   0.00000000    
     2         0.00000000     -0.584111717E-16   0.00000000     -0.112362679E-22
     3       -0.832605878E-24   0.00000000      0.184099505E-16   0.00000000    
     4         0.00000000      0.112362679E-22   0.00000000     -0.191712072E-15
 
 
 PROPERTY: ANGMOM     COMPONENT:*   2
 ORIGIN    :   0.00000000D+00   0.00000000D+00   0.00000000D+00
 STATE     :       1                2                3                4
 
     1       -0.218943639E-21   0.00000000      0.355019768E-24   0.00000000    
     2         0.00000000      0.163476860E-19   0.00000000     -0.116916815E-21
     3       -0.355019768E-24   0.00000000      0.607421722E-22   0.00000000    
     4         0.00000000      0.116916815E-21   0.00000000     -0.543274425E-23
 
 
 PROPERTY: ANGMOM     COMPONENT:*   3
 ORIGIN    :   0.00000000D+00   0.00000000D+00   0.00000000D+00
 STATE     :       1                2                3                4
 
     1       -0.253955506E-21   0.00000000      0.126794191E-16   0.00000000    
     2         0.00000000      0.683717903E-21   0.00000000     -0.263534443E-21
     3       -0.126794191E-16   0.00000000      0.526237508E-22   0.00000000    
     4         0.00000000      0.263534443E-21   0.00000000     -0.926536915E-22
 
 
 PROPERTY: MLTPV  2   COMPONENT:*   1
 ORIGIN    :   0.00000000D+00   0.00000000D+00   0.13406721D+00
 STATE     :       1                2                3                4
 
     1        0.167852256E-15   0.00000000      0.699463913E-23   0.00000000    
     2         0.00000000      0.110998518E-15   0.00000000     -0.434890054E-16
     3       -0.699463913E-23   0.00000000      0.183037244E-16   0.00000000    
     4         0.00000000      0.434890054E-16   0.00000000      0.142489903E-16
 
 
 PROPERTY: MLTPV  2   COMPONENT:*   2
 ORIGIN    :   0.00000000D+00   0.00000000D+00   0.13406721D+00
 STATE     :       1                2                3                4
 
     1        0.859420798E-23   0.00000000     -0.101357746E-17   0.00000000    
     2         0.00000000      0.110243048E-21   0.00000000      0.368761137E-22
     3        0.101357746E-17   0.00000000     -0.179378993E-22   0.00000000    
     4         0.00000000     -0.368761137E-22   0.00000000      0.239187263E-22
 
 
 PROPERTY: MLTPV  2   COMPONENT:*   3
 ORIGIN    :   0.00000000D+00   0.00000000D+00   0.13406721D+00
 STATE     :       1                2                3                4
 
     1        0.214273703E-22   0.00000000      0.307564834E-25   0.00000000    
     2         0.00000000      0.283612731E-21   0.00000000     -0.694122877E-22
     3       -0.307564834E-25   0.00000000      0.607279628E-23   0.00000000    
     4         0.00000000      0.694122877E-22   0.00000000     -0.146747796E-22
 
 
 PROPERTY: MLTPV  2   COMPONENT:*   4
 ORIGIN    :   0.00000000D+00   0.00000000D+00   0.13406721D+00
 STATE     :       1                2                3                4
 
     1        0.364769255E-15   0.00000000      0.128368245E-22   0.00000000    
     2         0.00000000      0.949658955E-16   0.00000000     -0.727582614E-16
     3       -0.128368245E-22   0.00000000      0.234517967E-16   0.00000000    
     4         0.00000000      0.727582614E-16   0.00000000     -0.367589923E-16
 
 
 PROPERTY: MLTPV  2   COMPONENT:*   5
 ORIGIN    :   0.00000000D+00   0.00000000D+00   0.13406721D+00
 STATE     :       1                2                3                4
 
     1        0.107748716E-16   0.00000000     -0.580855925E-24   0.00000000    
     2         0.00000000      0.443997491E-16   0.00000000      0.167864173E-22
     3        0.580855925E-24   0.00000000      0.166051512E-15   0.00000000    
     4         0.00000000     -0.167864173E-22   0.00000000      0.629237683E-16
 
 
 PROPERTY: MLTPV  2   COMPONENT:*   6
 ORIGIN    :   0.00000000D+00   0.00000000D+00   0.13406721D+00
 STATE     :       1                2                3                4
 
     1        0.483962259E-15   0.00000000      0.113176446E-22   0.00000000    
     2         0.00000000      0.251311016E-15   0.00000000     -0.917059956E-16
     3       -0.113176446E-22   0.00000000      0.528618008E-16   0.00000000    
     4         0.00000000      0.917059956E-16   0.00000000     -0.501778909E-16
 
 
 PROPERTY: AMFI       COMPONENT:*   1
 ORIGIN    :   0.00000000D+00   0.00000000D+00   0.00000000D+00
 STATE     :       1                2                3                4
 
     1         0.00000000       0.00000000     -0.543803657E-10   0.00000000    
     2         0.00000000      0.523765154E-24   0.00000000      0.128212033E-10
     3        0.543803657E-10   0.00000000     -0.118632398E-24   0.00000000    
     4         0.00000000     -0.128212033E-10   0.00000000     -0.190348380E-23
 
 
 PROPERTY: AMFI       COMPONENT:*   2
 ORIGIN    :   0.00000000D+00   0.00000000D+00   0.00000000D+00
 STATE     :       1                2                3                4
 
     1         0.00000000       0.00000000     -0.263325852E-11   0.00000000    
     2         0.00000000      0.505685564E-24   0.00000000      0.113045732E-08
     3        0.263325852E-11   0.00000000     -0.694089582E-25   0.00000000    
     4         0.00000000     -0.113045732E-08   0.00000000      0.176111076E-24
 
 
 PROPERTY: AMFI       COMPONENT:*   3
 ORIGIN    :   0.00000000D+00   0.00000000D+00   0.00000000D+00
 STATE     :       1                2                3                4
 
     1         0.00000000       0.00000000      0.142866301E-02   0.00000000    
     2         0.00000000      0.132335833E-23   0.00000000      0.154935672E-08
     3       -0.142866301E-02   0.00000000      0.272526721E-25   0.00000000    
     4         0.00000000     -0.154935672E-08   0.00000000      0.150989143E-25
 
--
 
::    RASSI State    1     Total energy:    -398.69153830429201
::    RASSI State    2     Total energy:    -398.36770065130133
::    RASSI State    3     Total energy:    -398.52903760265968
::    RASSI State    4     Total energy:    -398.10968191397450
 
 
 
      ****************************************************************************************************
      *                                                                                                  *
      *                                         Spin-free section                                        *
      *                                                                                                  *
      *                 Note: index according to input order, order according to energy.                 *
      *                                                                                                  *
      ****************************************************************************************************
 
 
 
  SPIN-FREE ENERGIES:
  (Shifted by EMIN (a.u.) =       -398.6915383043)
 
 SF State       Relative EMIN(au)   Rel lowest level(eV)    D:o, cm**(-1)
 
     1             0.0000000000        0.0000000000              0.0000
     3             0.1625007016        4.4218693574          35664.7816
     2             0.3238376530        8.8120714565          71074.1495
     4             0.5818563903       15.8331189766         127702.7168
 
++ Dipole transition strengths (spin-free states):
   -----------------------------------------------
     for osc. strength at least  1.00000000E-05
 
  ( Max oscillator strength is only   9.192870700246549E-034 )
--
 
++ Velocity transition strengths (spin-free states):
   -------------------------------------------------
     for osc. strength at least  1.00000000E-05
 
  ( Max oscillator strength is only   2.190236516411608E-033 )
--
 
++ Length and velocity gauge comparison (spin-free states):
   --------------------------------------------------------
 
 --------------------------------------------------
 A comparison between the dipole oscillator strengths in 
 length and velocity gauge will be performed
 
     All dipole oscillator differences above the tolerance of   1.00000000E-01  will be printed 
 
 Due to basis set deficiency these oscillator may be problematic 
 
 The tolerance is defined as ABS(1-O_l/O_v) 
 O_l : dipole oscillator strength in length gauge
 O_p : dipole oscillator strength in velocity gauge
 --------------------------------------------------
 
 No problematic oscillator strengths above the tolerance 
  0.100000000000000       have been found
 
--
 
 Electric-dipole - electric-octupole not included
 Electric-dipole - magnetic-quadrupole not included
 
 
 
      ****************************************************************************************************
      *                                                                                                  *
      *                                         Spin-orbit section                                       *
      *                                                                                                  *
      ****************************************************************************************************
 
 
 Complex SO-Hamiltonian matrix elements over
 spin components of spin-free eigenstates (SFS):
 (In cm-1. Print threshold:      0.000 cm-1)
 ----------------------------------------------------------------------
 
  I1  S1  MS1    I2  S2  MS2    Real part    Imag part      Absolute
     1  0.0  0.0    1  0.0  0.0         0.000         0.000         0.000
     2  0.5 -0.5    1  0.0  0.0         0.000         0.000         0.000
     2  0.5 -0.5    2  0.5 -0.5         0.000        -0.000         0.000
     3  0.5  0.5    1  0.0  0.0         0.000         0.000         0.000
     3  0.5  0.5    2  0.5 -0.5         0.000         0.000         0.000
     3  0.5  0.5    3  0.5  0.5         0.000         0.000         0.000
     4  1.0 -1.0    1  0.0  0.0        -0.000         0.000         0.000
     4  1.0 -1.0    2  0.5 -0.5         0.000         0.000         0.000
     4  1.0 -1.0    3  0.5  0.5         0.000         0.000         0.000
     4  1.0 -1.0    4  1.0 -1.0         0.000        -0.000         0.000
     5  1.0  0.0    1  0.0  0.0         0.000      -181.031       181.031
     5  1.0  0.0    2  0.5 -0.5         0.000         0.000         0.000
     5  1.0  0.0    3  0.5  0.5         0.000         0.000         0.000
     5  1.0  0.0    4  1.0 -1.0        -0.000        -0.000         0.000
     5  1.0  0.0    5  1.0  0.0         0.000         0.000         0.000
     6  1.0  1.0    1  0.0  0.0        -0.000        -0.000         0.000
     6  1.0  1.0    2  0.5 -0.5         0.000         0.000         0.000
     6  1.0  1.0    3  0.5  0.5         0.000         0.000         0.000
     6  1.0  1.0    4  1.0 -1.0         0.000         0.000         0.000
     6  1.0  1.0    5  1.0  0.0        -0.000        -0.000         0.000
     6  1.0  1.0    6  1.0  1.0         0.000         0.000         0.000
     7  1.5 -1.5    1  0.0  0.0         0.000         0.000         0.000
     7  1.5 -1.5    2  0.5 -0.5         0.000        -0.000         0.000
     7  1.5 -1.5    3  0.5  0.5         0.000         0.000         0.000
     7  1.5 -1.5    4  1.0 -1.0         0.000         0.000         0.000
     7  1.5 -1.5    5  1.0  0.0         0.000         0.000         0.000
     7  1.5 -1.5    6  1.0  1.0         0.000         0.000         0.000
     7  1.5 -1.5    7  1.5 -1.5         0.000        -0.000         0.000
     8  1.5 -0.5    1  0.0  0.0         0.000         0.000         0.000
     8  1.5 -0.5    2  0.5 -0.5         0.000        -0.000         0.000
     8  1.5 -0.5    3  0.5  0.5         0.000        -0.000         0.000
     8  1.5 -0.5    4  1.0 -1.0         0.000         0.000         0.000
     8  1.5 -0.5    5  1.0  0.0         0.000         0.000         0.000
     8  1.5 -0.5    6  1.0  1.0         0.000         0.000         0.000
     8  1.5 -0.5    7  1.5 -1.5         0.000        -0.000         0.000
     8  1.5 -0.5    8  1.5 -0.5         0.000        -0.000         0.000
     9  1.5  0.5    1  0.0  0.0         0.000         0.000         0.000
     9  1.5  0.5    2  0.5 -0.5         0.000         0.000         0.000
     9  1.5  0.5    3  0.5  0.5         0.000        -0.000         0.000
     9  1.5  0.5    4  1.0 -1.0         0.000         0.000         0.000
     9  1.5  0.5    5  1.0  0.0         0.000         0.000         0.000
     9  1.5  0.5    6  1.0  1.0         0.000         0.000         0.000
     9  1.5  0.5    7  1.5 -1.5         0.000         0.000         0.000
     9  1.5  0.5    8  1.5 -0.5         0.000        -0.000         0.000
     9  1.5  0.5    9  1.5  0.5         0.000         0.000         0.000
    10  1.5  1.5    1  0.0  0.0         0.000         0.000         0.000
    10  1.5  1.5    2  0.5 -0.5         0.000         0.000         0.000
    10  1.5  1.5    3  0.5  0.5         0.000         0.000         0.000
    10  1.5  1.5    4  1.0 -1.0         0.000         0.000         0.000
    10  1.5  1.5    5  1.0  0.0         0.000         0.000         0.000
    10  1.5  1.5    6  1.0  1.0         0.000         0.000         0.000
    10  1.5  1.5    7  1.5 -1.5         0.000         0.000         0.000
    10  1.5  1.5    8  1.5 -0.5         0.000         0.000         0.000
    10  1.5  1.5    9  1.5  0.5         0.000        -0.000         0.000
    10  1.5  1.5   10  1.5  1.5         0.000         0.000         0.000
 ----------------------------------------------------------------------
 
       Total energies including SO-coupling:
::    SO-RASSI State    1     Total energy:    -398.69154249099273
::    SO-RASSI State    2     Total energy:    -398.52903760265968
::    SO-RASSI State    3     Total energy:    -398.52903760265968
::    SO-RASSI State    4     Total energy:    -398.52903341595896
::    SO-RASSI State    5     Total energy:    -398.36770065130133
::    SO-RASSI State    6     Total energy:    -398.36770065130133
::    SO-RASSI State    7     Total energy:    -398.10968191397450
::    SO-RASSI State    8     Total energy:    -398.10968191397450
::    SO-RASSI State    9     Total energy:    -398.10968191397450
::    SO-RASSI State   10     Total energy:    -398.10968191397450
 
 
   Eigenvalues of complex Hamiltonian:
   -----------------------------------
  (Shifted by EMIN (a.u.) =       -398.6915383043)
 
 SO State       Relative EMIN(au)   Rel lowest level(eV)    D:o, cm**(-1)
 
     1            -0.0000041867        0.0000000000              0.0000
     2             0.1625007016        4.4219832833          35665.7005
     3             0.1625007016        4.4219832833          35665.7005
     4             0.1625048883        4.4220972092          35666.6193
     5             0.3238376530        8.8121853825          71075.0684
     6             0.3238376530        8.8121853825          71075.0684
     7             0.5818563903       15.8332329026         127703.6356
     8             0.5818563903       15.8332329026         127703.6356
     9             0.5818563903       15.8332329026         127703.6356
    10             0.5818563903       15.8332329026         127703.6356
 
 
 Weights of the five most important spin-orbit-free states for each spin-orbit s
 tate.
 
 SO State  Total energy (au)           Spin-free states, spin, and weights
 -------------------------------------------------------------------------------
 ------------------------
    1        -0.000004       1 0.0  1.0000    3 1.0  0.0000    4 1.5  0.0000    2 0.5  0.0000
    2         0.162501       3 1.0  1.0000    1 0.0  0.0000    4 1.5  0.0000    2 0.5  0.0000
    3         0.162501       3 1.0  1.0000    1 0.0  0.0000    4 1.5  0.0000    2 0.5  0.0000
    4         0.162505       3 1.0  1.0000    1 0.0  0.0000    4 1.5  0.0000    2 0.5  0.0000
    5         0.323838       2 0.5  1.0000    4 1.5  0.0000    3 1.0  0.0000    1 0.0  0.0000
    6         0.323838       2 0.5  1.0000    4 1.5  0.0000    3 1.0  0.0000    1 0.0  0.0000
    7         0.581856       4 1.5  1.0000    2 0.5  0.0000    3 1.0  0.0000    1 0.0  0.0000
    8         0.581856       4 1.5  1.0000    2 0.5  0.0000    3 1.0  0.0000    1 0.0  0.0000
    9         0.581856       4 1.5  1.0000    2 0.5  0.0000    3 1.0  0.0000    1 0.0  0.0000
   10         0.581856       4 1.5  1.0000    2 0.5  0.0000    3 1.0  0.0000    1 0.0  0.0000
 -------------------------------------------------------------------------------
 ------------------------
 
 
      ****************************************************************************************************
      *                                                                                                  *
      *                                    Special properties section                                    *
      *                                                                                                  *
      ****************************************************************************************************
 
 
++ Length and velocity gauge comparison (SO states):
 
 --------------------------------------------------
 A comparison between the dipole oscillator strengths in 
 length and velocity gauge will be performed
 
     All dipole oscillator differences above the tolerance of   1.00000000E-01  will be printed 
 
 Due to basis set deficiency these oscillator may be problematic 
 
 The tolerance is defined as ABS(1-O_l/O_v) 
 O_l : dipole oscillator strength in length gauge
 O_p : dipole oscillator strength in velocity gauge
 --------------------------------------------------
 
 No problematic oscillator strengths above the tolerance 
  0.100000000000000       have been found
 
--
 
 Electric-dipole - electric-octupole not included
++ I/O STATISTICS
 
  I. General I/O information
  - - - - - - - - - - - - - - - - - - - - - - - - - - - - - - - - - - - - - - - - - - -
  Unit  Name          Flsize      Write/Read            MBytes           Write/Read
                      (MBytes)       Calls              In/Out           Time, sec.
  - - - - - - - - - - - - - - - - - - - - - - - - - - - - - - - - - - - - - - - - - - -
   1  ANNI              0.00 .       0/       0 .      0.0/      0.0 .       0/       0
   2  RUNFILE           0.25 .     322/    3876 .      2.3/     28.1 .       0/       0
   3  ONEINT            1.46 .       0/     588 .      0.0/    538.5 .       0/       0
   4  JOB001            1.22 .       0/      47 .      0.0/      1.1 .       0/       0
   5  JOB002            1.22 .       0/      47 .      0.0/      1.1 .       0/       0
   6  JOB003            1.22 .       0/      47 .      0.0/      1.1 .       0/       0
   7  JOB004            1.22 .       0/      47 .      0.0/      1.1 .       0/       0
  - - - - - - - - - - - - - - - - - - - - - - - - - - - - - - - - - - - - - - - - - - -
   *  TOTAL             6.59 .     322/    4652 .      2.3/    571.0 .       0/       0
  - - - - - - - - - - - - - - - - - - - - - - - - - - - - - - - - - - - - - - - - - - -
 
  II. I/O Access Patterns
  - - - - - - - - - - - - - - - - - - - -
  Unit  Name               % of random
                         Write/Read calls
  - - - - - - - - - - - - - - - - - - - -
   1  ANNI                 0.0/   0.0
   2  RUNFILE             28.6/  10.5
   3  ONEINT               0.0/  96.6
   4  JOB001               0.0/  76.6
   5  JOB002               0.0/  76.6
   6  JOB003               0.0/  76.6
   7  JOB004               0.0/  76.6
  - - - - - - - - - - - - - - - - - - - -
--
--- Stop Module: rassi at Fri Mar 22 11:42:27 2024 /rc=_RC_ALL_IS_WELL_ ---
--- Module rassi spent 1 second ---

.##################.
.# Happy landing! #.
.##################.

    Timing: Wall=15.03 User=12.98 System=1.83
