   This run of MOLCAS is using the pymolcas driver

                             OPE
                             OPE          NMOL  CASOP  ENMOLC A   SO
                 OPE        NMOLC        AS  OP EN  MO LC     AS  OP
                OPENM       OL CA        SO  PE NM  OL CA     SOP EN
                OP EN      MO   LC       AS  OP ENMOL  CASO   PENMOL
                OP  EN     MO   LC       AS  OP EN     MO     LC ASO
               OP   E  NMOL  C  AS       OP  EN MO     LC     AS  OP
               OP  E   NMO   LC AS        OPEN  MO     LCASOP EN   M
               O  PEN   MO  LCA  SO
            OPE   NMO   L   CAS    OP
        OPENMOL  CASOP     ENMOL   CASOPE
     OPENMOLCA   SOPENMOLCASOPEN   MOLCASOPE
    OPENMOLCAS   OP           EN   MOL    CAS
    OPENMOLCAS       OP  ENM        O     LCA
    OPENMOLCAS    OPEN  MOLCASO     P  E  NMO
    OPENMOLCAS     OP               E  N  MOL
    OPENMOLCA   SO           PENM   O  L  CAS    OPEN    MO    LCAS
    OPENMOLCA   SOP           ENM   O  L  CAS   OP  EN  MOLC  AS   O
    OPENMOLCA   SOPE           NM      O  LCA   S      OP  EN MO
    OPENMOLC                AS         O  PEN   M      OL  CA  SOPE
    OPENMO        LCASOPE  NMOL        C  ASO   P      ENMOLC     AS
    OPE     NMO      LCA  SO     P     E   NM   OL  CA SO  PE N   MO
          OPENMOLCA            SOPE   NMO        LCAS  O    P  ENMO
     OPENMOLCASOPENMOLCASOPENMOLCASOPENMOLCA
        OPENMOLCASOPENMOLCASOPENMOLCASOPE
            OPENMOLCASOPENMOLCASOPENM
               OPENMOLCASOPENMOLCA        version: v23.10
                   OPENMOLCASO
                       OPE                tag:

 OpenMolcas is free software; you can redistribute it and/or modify it
 under the terms of the GNU Lesser General Public License version 2.1.
 OpenMolcas is distributed in the hope that it will be useful, but it
 is provided "as is" and without any express or implied warranties.
 For more details see the full text of the license in the file
 LICENSE or in <http://www.gnu.org/licenses/>.

                 Copyright (C) The OpenMolcas Authors
           For the author list and the recommended citation,
                   consult the file CONTRIBUTORS.md

           *************************************************
           * pymolcas version py2.25                       *
           *   build 2b27fa14244bdc32cb1957e6230cd793      *
           *   (after the EMIL interpreter by V. Veryazov) *
           *************************************************

configuration info
------------------
Host name: manganese.itc.univie.ac.at (Linux)
C Compiler ID: Clang
C flags: -std=gnu99
Fortran Compiler ID: Intel
Fortran flags: -fpp -i8 -heap-arrays
Definitions: _MOLCAS_;_I8_;_LINUX_
Parallel: OFF (GA=OFF)


   ---------------------------------------------------------------------------
  |
  |           Project: MOLCAS
  |    Submitted from: /public/manganese/scratch/tmp/sascha.925337/WORK/master
  |      Scratch area: /public/manganese/scratch/tmp/sascha.925337/WORK/master
  |   Save outputs to: WORKDIR
  |            Molcas: /usr/license/openmolcas/v23.10
  |
  | Scratch area is NOT empty
  |
  |        MOLCASMEM = 10000
  |    MOLCAS_DRIVER = /usr/license/openmolcas/v23.10/pymolcas
  |    MOLCAS_NPROCS = 1
  |    MOLCAS_SOURCE = /usr/license/openmolcas/v23.10
  | MOLCAS_STRUCTURE = 0
  |
   ---------------------------------------------------------------------------

++ ---------   Input file   ---------

&GATEWAY
COORD=MOLCAS.xyz
GROUP=NOSYM
BASIS=cc-pvdz
AMFI
angmom
0 0 0
BASLIB
/user/sascha/development/eci/sharc_main/examples/SHARC_MOLCAS/basisset

RICD
CDTHreshold=0.0001

&SEWARD

>>> COPY /public/manganese/scratch/tmp/sascha.925337/SAVE/MOLCAS.1.JobIph.0 JOBOLD

&RASSCF
SPIN=1
NACTEL=8 0 0
INACTIVE=5
RAS2=6
ITERATIONS=200,100
CIROOT=6 6 1
THRS=0.000000010000 0.000100000000 0.000100000000
JOBIPH

>>> COPY MOLCAS.rasscf.molden MOLCAS.1.molden

&CASPT2
SHIFT=0.0
IMAGINARY= 0.000
IPEASHIFT= 0.25
MAXITER=120
MULTISTATE= 3 1 2 3
OUTPUT=BRIEF
PRWF=0.1

>>> COPY MOLCAS.JobMix MOLCAS.1.JobIph

>>> COPY /public/manganese/scratch/tmp/sascha.925337/SAVE/MOLCAS.2.JobIph.0 JOBOLD

&RASSCF
SPIN=2
NACTEL=7 0 0
INACTIVE=5
RAS2=6
ITERATIONS=200,100
CIROOT=4 4 1
THRS=0.000000010000 0.000100000000 0.000100000000
JOBIPH

>>> COPY MOLCAS.rasscf.molden MOLCAS.2.molden

&CASPT2
SHIFT=0.0
IMAGINARY= 0.000
IPEASHIFT= 0.25
MAXITER=120
MULTISTATE= 3 1 2 3
OUTPUT=BRIEF
PRWF=0.1

>>> COPY MOLCAS.JobMix MOLCAS.2.JobIph

>>> COPY /public/manganese/scratch/tmp/sascha.925337/SAVE/MOLCAS.3.JobIph.0 JOBOLD

&RASSCF
SPIN=3
NACTEL=8 0 0
INACTIVE=5
RAS2=6
ITERATIONS=200,100
CIROOT=4 4 1
THRS=0.000000010000 0.000100000000 0.000100000000
JOBIPH

>>> COPY MOLCAS.rasscf.molden MOLCAS.3.molden

&CASPT2
SHIFT=0.0
IMAGINARY= 0.000
IPEASHIFT= 0.25
MAXITER=120
MULTISTATE= 3 1 2 3
OUTPUT=BRIEF
PRWF=0.1

>>> COPY MOLCAS.JobMix MOLCAS.3.JobIph

>>> COPY /public/manganese/scratch/tmp/sascha.925337/SAVE/MOLCAS.4.JobIph.0 JOBOLD

&RASSCF
SPIN=4
NACTEL=7 0 0
INACTIVE=5
RAS2=6
ITERATIONS=200,100
CIROOT=4 4 1
THRS=0.000000010000 0.000100000000 0.000100000000
JOBIPH

>>> COPY MOLCAS.rasscf.molden MOLCAS.4.molden

&CASPT2
SHIFT=0.0
IMAGINARY= 0.000
IPEASHIFT= 0.25
MAXITER=120
MULTISTATE= 3 1 2 3
OUTPUT=BRIEF
PRWF=0.1

>>> COPY MOLCAS.JobMix MOLCAS.4.JobIph

>>> COPY /public/manganese/scratch/tmp/sascha.925337/SAVE/MOLCAS.1.JobIph.0 JOB001

>>> COPY MOLCAS.1.JobIph JOB002

&RASSI
NROFJOBIPHS
2 3 3
1 2 3
1 2 3
MEIN
EJOB
OVERLAPS

>>> COPY MOLCAS.rassi.h5 MOLCAS.rassi.ovlp.1.h5

>>> COPY MOLCAS.1.JobIph JOB001

&RASSI
NROFJOBIPHS
1 3
1 2 3
MEIN
EJOB

>>> COPY MOLCAS.rassi.h5 MOLCAS.rassi.1.h5

>>> COPY /public/manganese/scratch/tmp/sascha.925337/SAVE/MOLCAS.2.JobIph.0 JOB001

>>> COPY MOLCAS.2.JobIph JOB002

&RASSI
NROFJOBIPHS
2 3 3
1 2 3
1 2 3
MEIN
EJOB
OVERLAPS

>>> COPY MOLCAS.rassi.h5 MOLCAS.rassi.ovlp.2.h5

>>> COPY MOLCAS.2.JobIph JOB001

&RASSI
NROFJOBIPHS
1 3
1 2 3
MEIN
EJOB

>>> COPY MOLCAS.rassi.h5 MOLCAS.rassi.2.h5

>>> COPY /public/manganese/scratch/tmp/sascha.925337/SAVE/MOLCAS.3.JobIph.0 JOB001

>>> COPY MOLCAS.3.JobIph JOB002

&RASSI
NROFJOBIPHS
2 3 3
1 2 3
1 2 3
MEIN
EJOB
OVERLAPS

>>> COPY MOLCAS.rassi.h5 MOLCAS.rassi.ovlp.3.h5

>>> COPY MOLCAS.3.JobIph JOB001

&RASSI
NROFJOBIPHS
1 3
1 2 3
MEIN
EJOB

>>> COPY MOLCAS.rassi.h5 MOLCAS.rassi.3.h5

>>> COPY /public/manganese/scratch/tmp/sascha.925337/SAVE/MOLCAS.4.JobIph.0 JOB001

>>> COPY MOLCAS.4.JobIph JOB002

&RASSI
NROFJOBIPHS
2 3 3
1 2 3
1 2 3
MEIN
EJOB
OVERLAPS

>>> COPY MOLCAS.rassi.h5 MOLCAS.rassi.ovlp.4.h5

>>> COPY MOLCAS.4.JobIph JOB001

&RASSI
NROFJOBIPHS
1 3
1 2 3
MEIN
EJOB

>>> COPY MOLCAS.rassi.h5 MOLCAS.rassi.4.h5

>>> COPY MOLCAS.1.JobIph JOB001

>>> COPY MOLCAS.2.JobIph JOB002

>>> COPY MOLCAS.3.JobIph JOB003

>>> COPY MOLCAS.4.JobIph JOB004

&RASSI
NROFJOBIPHS
4 3 3 3 3
1 2 3
1 2 3
1 2 3
1 2 3
MEIN
EJOB
SPINORBIT
SOCOUPLING=0.0d0
EJOB

-- ----------------------------------

--- Start Module: gateway at Fri Mar 22 12:47:58 2024 ---
 
()()()()()()()()()()()()()()()()()()()()()()()()()()()()()()()()()()()()()()()()()()()()()()()()()()

                                              &GATEWAY

                                   only a single process is used
                       available to each process: 10 GB of memory, 1 thread?
                                            pid: 1885287
()()()()()()()()()()()()()()()()()()()()()()()()()()()()()()()()()()()()()()()()()()()()()()()()()()
 
 
 
 Basis Set     1 Label: S.CC-PVDZ
 Basis set is read from library:/user/sascha/development/eci/sharc_main/examples/SHARC_MOLCAS/basisset 
 
 
 Basis Set     2 Label: H.CC-PVDZ
 Basis set is read from library:/user/sascha/development/eci/sharc_main/examples/SHARC_MOLCAS/basisset 
 
++    Symmetry information:
      ---------------------
 
                    Character Table for C1 
 
                             E  
                    a        1  x, y, xy, Rz, z, xz, Ry, yz, Rx, I
--
 
 
++    Basis set information:
      ----------------------
 
 
      Basis set label: S.CC-PVDZ.........
 
      Electronic valence basis set:
      ------------------
      Associated Effective Charge  16.000000 au
      Associated Actual Charge     16.000000 au
      Nuclear Model: Point charge
 
      Shell  nPrim  nBasis  Cartesian Spherical Contaminant
         s      12       4        X                  
         p       8       3        X                  
         d       1       1                 X         
 
 
      Basis set label: H.CC-PVDZ.........
 
      Electronic valence basis set:
      ------------------
      Associated Effective Charge   1.000000 au
      Associated Actual Charge      1.000000 au
      Nuclear Model: Point charge
 
      Shell  nPrim  nBasis  Cartesian Spherical Contaminant
         s       4       2        X                  
         p       1       1        X                  
--
 
 
++    Molecular structure info:
      -------------------------
 
                    ************************************************ 
                    **** Cartesian Coordinates / Bohr, Angstrom **** 
                    ************************************************ 
 
     Center  Label                x              y              z                     x              y              z
        1      S1               0.000000       0.000000       0.001589              0.000000       0.000000       0.000841
        2      H2               0.000000       1.842103       2.235421              0.000000       0.974799       1.182934
        3      H3              -0.018897      -1.842103       2.235421             -0.010000      -0.974799       1.182934
 
                    *************************************** 
                    *    InterNuclear Distances / Bohr    * 
                    *************************************** 
 
               1 S1            2 H2            3 H3    
    1 S1       0.000000
    2 H2       2.895401        0.000000
    3 H3       2.895463        3.684255        0.000000
 
                    ******************************************* 
                    *    InterNuclear Distances / Angstrom    * 
                    ******************************************* 
 
               1 S1            2 H2            3 H3    
    1 S1       0.000000
    2 H2       1.532180        0.000000
    3 H3       1.532213        1.949624        0.000000
 
                    ************************************** 
                    *    Valence Bond Angles / Degree    * 
                    ************************************** 
                          Atom centers                 Phi
                      2 H2       1 S1       3 H3        79.02
--
 
 
            Nuclear Potential Energy             11.32331568 au
 
--- Stop Module: gateway at Fri Mar 22 12:47:59 2024 /rc=_RC_ALL_IS_WELL_ ---

--- Start Module: seward at Fri Mar 22 12:47:59 2024 ---
 
()()()()()()()()()()()()()()()()()()()()()()()()()()()()()()()()()()()()()()()()()()()()()()()()()()

                                              &SEWARD

                                   only a single process is used
                       available to each process: 10 GB of memory, 1 thread?
                                            pid: 1885290
()()()()()()()()()()()()()()()()()()()()()()()()()()()()()()()()()()()()()()()()()()()()()()()()()()
 
               SEWARD will generate:
                  Multipole Moment integrals up to order  2
                  Kinetic Energy integrals
                  Nuclear Attraction integrals (point charge)
                  One-Electron Hamiltonian integrals
                  Velocity integrals
                  Orbital angular momentum around ( 0.0000  0.0000  0.0000 )
                  Velocity quadrupole around (-0.0006  0.0000  0.1341 )
                  Atomic mean-field integrals
                  RI decomposed two-electron repulsion integrals stored Cholesky style
                   - acCD auxiliary basis
                   - CD Threshold:   0.10E-03
 
                   Integrals are discarded if absolute value <: 0.10E-13
                   Integral cutoff threshold is set to       <: 0.10E-15
 
            Nuclear Potential Energy             11.32331568 au
 
 
      Basis set specifications :
      Symmetry species         a  
      Basis functions           28
 
 
      Input file to MOLDEN was generated!
 
--- Stop Module: seward at Fri Mar 22 12:47:59 2024 /rc=_RC_ALL_IS_WELL_ ---

>>> COPY /public/manganese/scratch/tmp/sascha.925337/SAVE/MOLCAS.1.JobIph.0 JOBOLD

*** symbolic link created: INPORB -> MOLCAS.GssOrb
--- Start Module: rasscf at Fri Mar 22 12:47:59 2024 ---
 
()()()()()()()()()()()()()()()()()()()()()()()()()()()()()()()()()()()()()()()()()()()()()()()()()()

                                              &RASSCF

                                   only a single process is used
                       available to each process: 10 GB of memory, 1 thread?
                                            pid: 1885305
()()()()()()()()()()()()()()()()()()()()()()()()()()()()()()()()()()()()()()()()()()()()()()()()()()
 
 
      Header of the ONEINT file:
      --------------------------
      
      Integrals generated by Gateway/Seward, Fri Mar 22 12:47:59 2024
 
 
      OrdInt status: non-squared
 
 
      Cartesian coordinates in Angstrom:
      -----------------------------------------------------
      No.  Label        X            Y            Z        
      -----------------------------------------------------
       1   S1         0.00000000   0.00000000   0.00084100
       2   H2         0.00000000   0.97479900   1.18293400
       3   H3        -0.01000000  -0.97479900   1.18293400
      -----------------------------------------------------
      Nuclear repulsion energy =   11.32331568
 
++    Wave function specifications:
      -----------------------------
 
      Number of closed shell electrons          10
      Number of electrons in active shells       8
      Max number of holes in RAS1 space          0
      Max nr of electrons in RAS3 space          0
      Number of inactive orbitals                5
      Number of active orbitals                  6
      Number of secondary orbitals              17
      Spin quantum number                      0.0
      State symmetry                             1
--
 
++    Orbital specifications:
      -----------------------
 
      Symmetry species                           1
                                                 a
      Frozen orbitals                            0
      Inactive orbitals                          5
      Active orbitals                            6
      RAS1 orbitals                              0
      RAS2 orbitals                              6
      RAS3 orbitals                              0
      Secondary orbitals                        17
      Deleted orbitals                           0
      Number of basis functions                 28
--
 
++    CI expansion specifications:
      ----------------------------
 
      Number of CSFs                           105
      Number of determinants                   120
      Number of root(s) required                 6
      Root chosen for geometry opt.              6
      CI roots used                              1     2     3     4     5     6
      weights                                0.167 0.167 0.167 0.167 0.167 0.167
      highest root included in the CI            6
      max. size of the explicit Hamiltonian    105
--
 
++    Optimization specifications:
      ----------------------------
 
      RASSCF algorithm: LK RI/DF
      Maximum number of macro iterations       200
      Maximum number of SX iterations          100
      Threshold for RASSCF energy            0.100E-07
      Threshold for max MO rotation          0.100E-03
      Threshold for max BLB element          0.100E-03
      Level shift parameter                  0.500E+00
      Make Quasi-Newton update
--
 
      The MO-coefficients are taken from the file:
      JOBOLD
      Title:(No title given)                                                        
 
      Total molecular charge    0.00
 
      ************************************************************************************************************************
      *                                                                                                                      *
      *                                            Wave function control section                                             *
      *                                                                                                                      *
      ************************************************************************************************************************
 
 
                                         RASSCF iterations: Energy and convergence statistics
                                         ----------------------------------------------------
 
      Iter CI   SX   CI       RASSCF       Energy    max ROT     max BLB   max BLB  Level Ln srch  Step   QN   Walltime
          iter iter root      energy       change     param      element    value   shift minimum  type update hh:mm:ss
 Nr of preliminary CI iterations:   1
        1   1    4    0  -398.44308776    0.00E+00  -0.56E-03*   9  13 1 -0.71E-03*  0.00   0.00    SX    NO    0:00:00
        2   1    3    0  -398.44309028   -0.25E-05* -0.11E-03*   9  13 1 -0.16E-03*  0.00   0.00    SX    NO    0:00:00
        3   1    3    0  -398.44309036   -0.78E-07* -0.26E-04    9  13 1 -0.39E-04   0.00   0.00    SX    NO    0:00:00
        4   1    3    0  -398.44309036   -0.36E-08   0.69E-05    9  13 1 -0.10E-04   0.00   0.00    SX    NO    0:00:00
      Convergence after  4 iterations
        5   1    3    0  -398.44309036   -0.28E-09   0.69E-05    9  12 1 -0.28E-05   0.00   0.00    SX    NO    0:00:00
 
      ************************************************************************************************************************
                                                      Wave function printout:
                       occupation of active orbitals, and spin coupling of open shells (u,d: Spin up or down)
      ************************************************************************************************************************
 
      Note: transformation to natural orbitals
      has been made, which may change the order of the CSFs.
 
      printout of CI-coefficients larger than  0.05 for root  1
      energy=    -398.691536
      conf/sym  111111     Coeff  Weight
             1  222200  -0.97171 0.94422
             9  22u20d   0.08307 0.00690
            15  2u22d0   0.10925 0.01193
            31  220220   0.07716 0.00595
            34  220202   0.05746 0.00330
            38  2ud2ud   0.10920 0.01192
            49  202220   0.09391 0.00882
 
      printout of CI-coefficients larger than  0.05 for root  2
      energy=    -398.508201
      conf/sym  111111     Coeff  Weight
             2  222ud0   0.97539 0.95139
            10  22udud   0.10906 0.01190
            11  22uudd  -0.06609 0.00437
            16  2u2d20   0.08873 0.00787
            21  2u2d02   0.07662 0.00587
            26  u22dud   0.06186 0.00383
            35  220ud2  -0.06541 0.00428
            39  2udu2d  -0.07174 0.00515
 
      printout of CI-coefficients larger than  0.05 for root  3
      energy=    -398.478577
      conf/sym  111111     Coeff  Weight
             4  222u0d  -0.96184 0.92513
             8  22ud20  -0.11302 0.01277
            13  22ud02  -0.06602 0.00436
            18  2u2dud  -0.16520 0.02729
            29  u22d02  -0.05497 0.00302
            33  220u2d  -0.06937 0.00481
            41  2udud2  -0.07865 0.00619
            51  202u2d  -0.10588 0.01121
 
      printout of CI-coefficients larger than  0.05 for root  4
      energy=    -398.351927
      conf/sym  111111     Coeff  Weight
             3  222020   0.07945 0.00631
             9  22u20d  -0.74344 0.55270
            15  2u22d0   0.59731 0.35678
            25  u2220d   0.05304 0.00281
            31  220220  -0.17635 0.03110
            38  2ud2ud  -0.05383 0.00290
            43  u2d220  -0.07936 0.00630
            46  u2d202   0.05187 0.00269
            49  202220  -0.06216 0.00386
            52  202202   0.13931 0.01941
            56  ud22ud   0.06234 0.00389
 
      printout of CI-coefficients larger than  0.05 for root  5
      energy=    -398.345882
      conf/sym  111111     Coeff  Weight
             7  22u2d0   0.67353 0.45365
            17  2u220d  -0.67543 0.45620
            32  2202ud   0.13692 0.01875
            37  2ud220  -0.14811 0.02194
            40  2ud202   0.15180 0.02304
            50  2022ud  -0.10075 0.01015
            55  ud2220  -0.07399 0.00547
            76  2u022d   0.05467 0.00299
 
      printout of CI-coefficients larger than  0.05 for root  6
      energy=    -398.282420
      conf/sym  111111     Coeff  Weight
             7  22u2d0   0.69811 0.48736
            17  2u220d   0.69811 0.48736
            32  2202ud   0.05682 0.00323
            44  u2d2ud  -0.07322 0.00536
            55  ud2220  -0.07082 0.00502
            76  2u022d  -0.07051 0.00497
 
      Natural orbitals and occupation numbers for root  1
      sym 1:   1.997304   1.961191   1.964606   1.998624   0.048338   0.029938
 
      Natural orbitals and occupation numbers for root  2
      sym 1:   1.998912   1.986431   1.961513   1.000000   0.999157   0.053987
 
      Natural orbitals and occupation numbers for root  3
      sym 1:   1.998795   1.940164   1.971876   1.000000   0.096921   0.992244
 
      Natural orbitals and occupation numbers for root  4
      sym 1:   1.977020   1.582911   1.363580   1.983675   0.471479   0.621334
 
      Natural orbitals and occupation numbers for root  5
      sym 1:   1.992380   1.465203   1.450355   1.997413   0.550812   0.543838
 
      Natural orbitals and occupation numbers for root  6
      sym 1:   1.990636   1.498250   1.485251   1.998508   0.523338   0.504018
 
      ************************************************************************************************************************
      *                                                                                                                      *
      *                                                    Final results                                                     *
      *                                                                                                                      *
      ************************************************************************************************************************
 
 
++    Wave function specifications:
      -----------------------------
 
      Number of closed shell electrons          10
      Number of electrons in active shells       8
      Max number of holes in RAS1 space          0
      Max nr of electrons in RAS3 space          0
      Number of inactive orbitals                5
      Number of active orbitals                  6
      Number of secondary orbitals              17
      Spin quantum number                      0.0
      State symmetry                             1
--
 
++    Orbital specifications:
      -----------------------
 
      Symmetry species                           1
                                                 a
      Frozen orbitals                            0
      Inactive orbitals                          5
      Active orbitals                            6
      RAS1 orbitals                              0
      RAS2 orbitals                              6
      RAS3 orbitals                              0
      Secondary orbitals                        17
      Deleted orbitals                           0
      Number of basis functions                 28
--
 
++    CI expansion specifications:
      ----------------------------
 
      Number of CSFs                           105
      Number of determinants                   120
      Number of root(s) required                 6
      CI roots used                              1     2     3     4     5     6
      weights                                0.167 0.167 0.167 0.167 0.167 0.167
      highest root included in the CI            6
      Root passed to geometry opt.               6
--
 
++    Final optimization conditions:
      ------------------------------
 
      Average CI energy                            -398.44309036
      RASSCF energy for state  6                   -398.28241994
      Super-CI energy                                -0.00000000
      RASSCF energy change                           -0.00000000
      Max change in MO coefficients               0.167E-04
      Max non-diagonal density matrix element     0.687E-05
      Maximum BLB matrix element                 -0.279E-05
      (orbital pair   9,  12 in symmetry   1)
      Norm of electronic gradient            0.933E-01
--
 
 
      Final state energy(ies):
      ------------------------
 
::    RASSCF root number  1 Total energy:   -398.69153586
::    RASSCF root number  2 Total energy:   -398.50820091
::    RASSCF root number  3 Total energy:   -398.47857715
::    RASSCF root number  4 Total energy:   -398.35192658
::    RASSCF root number  5 Total energy:   -398.34588174
::    RASSCF root number  6 Total energy:   -398.28241994
 
++    Molecular orbitals:
      -------------------
 
      Pseudonatural active orbitals and approximate occupation numbers
 
 
 
 
      Molecular orbitals for symmetry species 1: a  
 
 
      Orbital                 1         2         3         4         5         6         7         8         9        10
      Energy           -92.0134   -9.0136   -6.6934   -6.6932   -6.6914   -0.9576    0.0000    0.0000   -0.0024   -0.0000
      Occ. No.           2.0000    2.0000    2.0000    2.0000    2.0000    1.9891    1.7355    1.6993    1.6630    0.4519
 
     1 S1     1s         1.0000    0.0002    0.0000   -0.0000    0.0000    0.0008    0.0000    0.0011    0.0000   -0.0000
     2 S1     2s         0.0001    1.0012   -0.0024    0.0000    0.0000    0.0061    0.0000    0.0030    0.0000   -0.0001
     3 S1     3s         0.0003    0.0016    0.0023   -0.0000   -0.0000    0.9302   -0.0001   -0.3234   -0.0000    0.0005
     4 S1     *s        -0.0002   -0.0049   -0.0013    0.0000   -0.0000   -0.0461   -0.0001   -0.1076    0.0000    0.0010
     5 S1     2px       -0.0000   -0.0000   -0.0042    0.0051    0.9999    0.0000   -0.0000    0.0000   -0.0028    0.0000
     6 S1     3px       -0.0000   -0.0000   -0.0000    0.0000   -0.0005   -0.0004    0.0038   -0.0032    0.9732    0.0036
     7 S1     *px        0.0000    0.0000    0.0000   -0.0000    0.0009    0.0001   -0.0005    0.0003    0.0249    0.0016
     8 S1     2py        0.0000    0.0000    0.0001    1.0000   -0.0051   -0.0000   -0.0062    0.0000    0.0000    0.0058
     9 S1     3py        0.0000    0.0000    0.0000    0.0013    0.0000    0.0000    0.7501   -0.0003   -0.0050    0.7027
    10 S1     *py       -0.0000   -0.0000   -0.0000   -0.0007   -0.0000   -0.0000   -0.0927    0.0000   -0.0001    0.3131
    11 S1     2pz        0.0000    0.0030    1.0000   -0.0001    0.0042   -0.0048   -0.0000   -0.0078   -0.0000    0.0000
    12 S1     3pz        0.0001    0.0017    0.0015   -0.0000   -0.0000    0.1042    0.0003    0.7627    0.0041    0.0011
    13 S1     *pz       -0.0001   -0.0030   -0.0007    0.0000    0.0000   -0.0336   -0.0000   -0.0698    0.0001    0.0006
    14 S1     *d2-       0.0000    0.0000    0.0000   -0.0000    0.0000    0.0001   -0.0003    0.0002    0.0000    0.0004
    15 S1     *d1-       0.0000    0.0000    0.0000    0.0004   -0.0000    0.0000    0.0644   -0.0000   -0.0001   -0.1018
    16 S1     *d0        0.0000    0.0001    0.0003   -0.0000    0.0000    0.0088    0.0000    0.0292    0.0001   -0.0000
    17 S1     *d1+      -0.0000   -0.0000   -0.0000    0.0000    0.0002   -0.0001    0.0003   -0.0003    0.0171   -0.0005
    18 S1     *d2+      -0.0000   -0.0001   -0.0001   -0.0000   -0.0000   -0.0077   -0.0000   -0.0191   -0.0001    0.0000
    19 H2     1s         0.0000   -0.0007    0.0010    0.0005   -0.0000    0.2191    0.4551    0.3787    0.0000   -0.5664
    20 H2     *s         0.0001    0.0021   -0.0003   -0.0001    0.0000   -0.0927   -0.0874   -0.0901   -0.0000   -0.3843
    21 H2     *px       -0.0000    0.0000    0.0000    0.0000    0.0000   -0.0000    0.0000   -0.0001    0.0143    0.0001
    22 H2     *py        0.0000    0.0004   -0.0000   -0.0000   -0.0000   -0.0130   -0.0075   -0.0180   -0.0001    0.0024
    23 H2     *pz        0.0000    0.0005   -0.0001   -0.0000    0.0000   -0.0138   -0.0208   -0.0076    0.0001   -0.0094
    24 H3     1s         0.0000   -0.0007    0.0010   -0.0005    0.0000    0.2191   -0.4547    0.3790    0.0000    0.5650
    25 H3     *s         0.0001    0.0021   -0.0003    0.0001   -0.0000   -0.0927    0.0874   -0.0902   -0.0000    0.3826
    26 H3     *px       -0.0000   -0.0000    0.0000   -0.0000    0.0000    0.0001   -0.0001    0.0001    0.0143   -0.0000
    27 H3     *py       -0.0000   -0.0004    0.0000   -0.0000   -0.0000    0.0130   -0.0075    0.0180   -0.0001    0.0024
    28 H3     *pz        0.0000    0.0005   -0.0001    0.0000    0.0000   -0.0138    0.0208   -0.0076    0.0001    0.0094
 
 
      Orbital                11
      Energy             0.0099
      Occ. No.           0.4613
 
     1 S1     1s         0.0062
     2 S1     2s         0.0324
     3 S1     3s        -0.3069
     4 S1     *s        -0.6163
     5 S1     2px        0.0000
     6 S1     3px        0.0029
     7 S1     *px        0.0015
     8 S1     2py        0.0000
     9 S1     3py        0.0011
    10 S1     *py        0.0005
    11 S1     2pz       -0.0107
    12 S1     3pz       -0.6760
    13 S1     *pz       -0.3466
    14 S1     *d2-       0.0002
    15 S1     *d1-      -0.0002
    16 S1     *d0        0.0229
    17 S1     *d1+      -0.0002
    18 S1     *d2+      -0.0180
    19 H2     1s         0.4157
    20 H2     *s         0.5384
    21 H2     *px       -0.0000
    22 H2     *py        0.0064
    23 H2     *pz        0.0125
    24 H3     1s         0.4175
    25 H3     *s         0.5396
    26 H3     *px       -0.0001
    27 H3     *py       -0.0064
    28 H3     *pz        0.0125
--
 
      Von Neumann Entropy (Root   1) =  0.27651
 

      Mulliken population analysis for root number:  1
      -----------------------------------------------
 
 
++    Molecular charges:
      ------------------
 
      Mulliken charges per centre and basis function type
      ---------------------------------------------------
 
                S1      H2      H3    
      1s       2.0000  1.1055  1.1055
      2s       2.0025  0.0000  0.0000
      2px      1.9998  0.0000  0.0000
      2pz      2.0001  0.0000  0.0000
      2py      2.0001  0.0000  0.0000
      3s       1.9412  0.0000  0.0000
      3px      1.9441  0.0000  0.0000
      3pz      1.3253  0.0000  0.0000
      3py      1.2058  0.0000  0.0000
      *s      -0.0665 -0.1819 -0.1818
      *px      0.0449  0.0045  0.0045
      *pz     -0.1614  0.0111  0.0111
      *py     -0.1816  0.0083  0.0083
      *d2+     0.0040  0.0000  0.0000
      *d1+     0.0007  0.0000  0.0000
      *d0      0.0072  0.0000  0.0000
      *d1-     0.0389  0.0000  0.0000
      *d2-     0.0000  0.0000  0.0000
      Total   16.1051  0.9475  0.9475
 
      N-E     -0.1051  0.0525  0.0525
 
      Total electronic charge=   18.000000
 
      Total            charge=   -0.000000
--
 
 

      Expectation values of various properties for root number:  1
      -----------------------------------------------------------
 
 
++    Molecular properties:
      ---------------------
 
      Charge (e):
                      =   -0.0000
      Dipole Moment (Debye):
      Origin of the operator (Ang)=    0.0000    0.0000    0.0000
                   X= -3.8788E-03               Y=  3.2879E-05               Z=  9.1921E-01           Total=  9.1922E-01
      Quadrupole Moment (Debye*Ang):
      Origin of the operator (Ang)=   -0.0003    0.0000    0.0709
                  XX= -1.6706E+01              XY=  1.7598E-02              XZ= -1.5502E-02              YY= -1.3273E+01
                  YZ=  6.1326E-05              ZZ= -1.3041E+01
      In traceless form (Debye*Ang)
                  XX= -3.5493E+00              XY=  2.6396E-02              XZ= -2.3253E-02              YY=  1.6004E+00
                  YZ=  9.1990E-05              ZZ=  1.9490E+00
--
 
      Von Neumann Entropy (Root   2) =  1.17889
 

      Mulliken population analysis for root number:  2
      -----------------------------------------------
 
 
++    Molecular charges:
      ------------------
 
      Mulliken charges per centre and basis function type
      ---------------------------------------------------
 
                S1      H2      H3    
      1s       2.0000  1.1602  1.1602
      2s       2.0025  0.0000  0.0000
      2px      1.9998  0.0000  0.0000
      2pz      2.0001  0.0000  0.0000
      2py      2.0001  0.0000  0.0000
      3s       1.9513  0.0000  0.0000
      3px      0.9728  0.0000  0.0000
      3pz      1.4150  0.0000  0.0000
      3py      1.7236  0.0000  0.0000
      *s      -0.0492 -0.1499 -0.1498
      *px      0.0225  0.0023  0.0023
      *pz     -0.1321  0.0144  0.0144
      *py     -0.0557  0.0088  0.0088
      *d2+     0.0036  0.0000  0.0000
      *d1+     0.0004  0.0000  0.0000
      *d0      0.0066  0.0000  0.0000
      *d1-     0.0668  0.0000  0.0000
      *d2-     0.0000  0.0000  0.0000
      Total   15.9281  1.0359  1.0360
 
      N-E      0.0719 -0.0359 -0.0360
 
      Total electronic charge=   18.000000
 
      Total            charge=   -0.000000
--
 
 

      Expectation values of various properties for root number:  2
      -----------------------------------------------------------
 
 
++    Molecular properties:
      ---------------------
 
      Charge (e):
                      =   -0.0000
      Dipole Moment (Debye):
      Origin of the operator (Ang)=    0.0000    0.0000    0.0000
                   X=  7.7897E-05               Y=  5.3003E-04               Z= -1.9423E-02           Total=  1.9430E-02
      Quadrupole Moment (Debye*Ang):
      Origin of the operator (Ang)=   -0.0003    0.0000    0.0709
                  XX= -1.4008E+01              XY= -1.4700E-02              XZ=  1.0194E-02              YY= -1.6871E+01
                  YZ=  1.2831E-03              ZZ= -1.6416E+01
      In traceless form (Debye*Ang)
                  XX=  2.6357E+00              XY= -2.2050E-02              XZ=  1.5291E-02              YY= -1.6590E+00
                  YZ=  1.9247E-03              ZZ= -9.7673E-01
--
 
      Von Neumann Entropy (Root   3) =  1.27685
 

      Mulliken population analysis for root number:  3
      -----------------------------------------------
 
 
++    Molecular charges:
      ------------------
 
      Mulliken charges per centre and basis function type
      ---------------------------------------------------
 
                S1      H2      H3    
      1s       2.0000  1.1049  1.1048
      2s       2.0024  0.0000  0.0000
      2px      1.9998  0.0000  0.0000
      2pz      2.0001  0.0000  0.0000
      2py      2.0001  0.0000  0.0000
      3s       1.9770  0.0000  0.0000
      3px      0.9728  0.0000  0.0000
      3pz      1.6999  0.0000  0.0000
      3py      1.3751  0.0000  0.0000
      *s      -0.0752 -0.0416 -0.0416
      *px      0.0225  0.0023  0.0023
      *pz     -0.0706  0.0157  0.0157
      *py     -0.1347  0.0109  0.0109
      *d2+     0.0054  0.0000  0.0000
      *d1+     0.0004  0.0000  0.0000
      *d0      0.0091  0.0000  0.0000
      *d1-     0.0316  0.0000  0.0000
      *d2-     0.0000  0.0000  0.0000
      Total   15.8158  1.0922  1.0921
 
      N-E      0.1842 -0.0922 -0.0921
 
      Total electronic charge=   18.000000
 
      Total            charge=   -0.000000
--
 
 

      Expectation values of various properties for root number:  3
      -----------------------------------------------------------
 
 
++    Molecular properties:
      ---------------------
 
      Charge (e):
                      =   -0.0000
      Dipole Moment (Debye):
      Origin of the operator (Ang)=    0.0000    0.0000    0.0000
                   X=  5.0428E-03               Y= -5.5835E-04               Z= -1.1944E+00           Total=  1.1944E+00
      Quadrupole Moment (Debye*Ang):
      Origin of the operator (Ang)=   -0.0003    0.0000    0.0709
                  XX= -1.4459E+01              XY= -1.2703E-02              XZ=  1.8547E-02              YY= -1.6936E+01
                  YZ= -1.4912E-03              ZZ= -1.8845E+01
      In traceless form (Debye*Ang)
                  XX=  3.4312E+00              XY= -1.9054E-02              XZ=  2.7821E-02              YY= -2.8325E-01
                  YZ= -2.2368E-03              ZZ= -3.1479E+00
--
 
      Von Neumann Entropy (Root   4) =  1.68743
 

      Mulliken population analysis for root number:  4
      -----------------------------------------------
 
 
++    Molecular charges:
      ------------------
 
      Mulliken charges per centre and basis function type
      ---------------------------------------------------
 
                S1      H2      H3    
      1s       2.0000  1.0038  1.0042
      2s       2.0024  0.0000  0.0000
      2px      1.9998  0.0000  0.0000
      2pz      2.0001  0.0000  0.0000
      2py      2.0001  0.0000  0.0000
      3s       1.8808  0.0000  0.0000
      3px      1.9296  0.0000  0.0000
      3pz      1.1374  0.0000  0.0000
      3py      1.2049  0.0000  0.0000
      *s      -0.0875 -0.0328 -0.0327
      *px      0.0445  0.0045  0.0045
      *pz     -0.0730  0.0133  0.0133
      *py     -0.0893  0.0084  0.0084
      *d2+     0.0040  0.0000  0.0000
      *d1+     0.0007  0.0000  0.0000
      *d0      0.0068  0.0000  0.0000
      *d1-     0.0437  0.0000  0.0000
      *d2-     0.0000  0.0000  0.0000
      Total   16.0051  0.9972  0.9977
 
      N-E     -0.0051  0.0028  0.0023
 
      Total electronic charge=   18.000000
 
      Total            charge=   -0.000000
--
 
 

      Expectation values of various properties for root number:  4
      -----------------------------------------------------------
 
 
++    Molecular properties:
      ---------------------
 
      Charge (e):
                      =   -0.0000
      Dipole Moment (Debye):
      Origin of the operator (Ang)=    0.0000    0.0000    0.0000
                   X=  1.6100E-03               Y=  2.1130E-03               Z= -3.7514E-01           Total=  3.7515E-01
      Quadrupole Moment (Debye*Ang):
      Origin of the operator (Ang)=   -0.0003    0.0000    0.0709
                  XX= -1.7069E+01              XY=  7.2197E-03              XZ= -4.6499E-03              YY= -1.5655E+01
                  YZ=  5.8940E-03              ZZ= -1.5962E+01
      In traceless form (Debye*Ang)
                  XX= -1.2610E+00              XY=  1.0830E-02              XZ= -6.9749E-03              YY=  8.6080E-01
                  YZ=  8.8410E-03              ZZ=  4.0022E-01
--
 
      Von Neumann Entropy (Root   5) =  1.69563
 

      Mulliken population analysis for root number:  5
      -----------------------------------------------
 
 
++    Molecular charges:
      ------------------
 
      Mulliken charges per centre and basis function type
      ---------------------------------------------------
 
                S1      H2      H3    
      1s       2.0000  0.9912  0.9907
      2s       2.0024  0.0000  0.0000
      2px      1.9998  0.0000  0.0000
      2pz      2.0001  0.0000  0.0000
      2py      2.0001  0.0000  0.0000
      3s       1.9404  0.0000  0.0000
      3px      1.9429  0.0000  0.0000
      3pz      1.1597  0.0000  0.0000
      3py      1.1176  0.0000  0.0000
      *s      -0.0610 -0.0372 -0.0372
      *px      0.0449  0.0045  0.0045
      *pz     -0.0813  0.0126  0.0126
      *py     -0.0820  0.0083  0.0083
      *d2+     0.0039  0.0000  0.0000
      *d1+     0.0007  0.0000  0.0000
      *d0      0.0067  0.0000  0.0000
      *d1-     0.0468  0.0000  0.0000
      *d2-     0.0000  0.0000  0.0000
      Total   16.0417  0.9794  0.9789
 
      N-E     -0.0417  0.0206  0.0211
 
      Total electronic charge=   18.000000
 
      Total            charge=   -0.000000
--
 
 

      Expectation values of various properties for root number:  5
      -----------------------------------------------------------
 
 
++    Molecular properties:
      ---------------------
 
      Charge (e):
                      =   -0.0000
      Dipole Moment (Debye):
      Origin of the operator (Ang)=    0.0000    0.0000    0.0000
                   X=  3.5724E-05               Y= -2.1452E-03               Z= -8.0917E-03           Total=  8.3713E-03
      Quadrupole Moment (Debye*Ang):
      Origin of the operator (Ang)=   -0.0003    0.0000    0.0709
                  XX= -1.7106E+01              XY=  9.0185E-03              XZ= -4.9906E-03              YY= -1.5351E+01
                  YZ= -5.9106E-03              ZZ= -1.5933E+01
      In traceless form (Debye*Ang)
                  XX= -1.4647E+00              XY=  1.3528E-02              XZ= -7.4859E-03              YY=  1.1691E+00
                  YZ= -8.8659E-03              ZZ=  2.9559E-01
--
 
      Von Neumann Entropy (Root   6) =  1.64602
 

      Mulliken population analysis for root number:  6
      -----------------------------------------------
 
 
++    Molecular charges:
      ------------------
 
      Mulliken charges per centre and basis function type
      ---------------------------------------------------
 
                S1      H2      H3    
      1s       2.0000  1.0072  1.0071
      2s       2.0024  0.0000  0.0000
      2px      1.9998  0.0000  0.0000
      2pz      2.0001  0.0000  0.0000
      2py      2.0001  0.0000  0.0000
      3s       1.8656  0.0000  0.0000
      3px      1.9440  0.0000  0.0000
      3pz      1.2034  0.0000  0.0000
      3py      1.1800  0.0000  0.0000
      *s      -0.1336 -0.0351 -0.0351
      *px      0.0449  0.0045  0.0045
      *pz     -0.0820  0.0124  0.0124
      *py     -0.0744  0.0083  0.0083
      *d2+     0.0040  0.0000  0.0000
      *d1+     0.0007  0.0000  0.0000
      *d0      0.0068  0.0000  0.0000
      *d1-     0.0436  0.0000  0.0000
      *d2-     0.0000  0.0000  0.0000
      Total   16.0055  0.9973  0.9973
 
      N-E     -0.0055  0.0027  0.0027
 
      Total electronic charge=   18.000000
 
      Total            charge=   -0.000000
--
 
 

      Expectation values of various properties for root number:  6
      -----------------------------------------------------------
 
 
++    Molecular properties:
      ---------------------
 
      Charge (e):
                      =   -0.0000
      Dipole Moment (Debye):
      Origin of the operator (Ang)=    0.0000    0.0000    0.0000
                   X= -1.5307E-03               Y=  5.7417E-05               Z=  3.6485E-01           Total=  3.6485E-01
      Quadrupole Moment (Debye*Ang):
      Origin of the operator (Ang)=   -0.0003    0.0000    0.0709
                  XX= -1.7067E+01              XY=  9.3034E-03              XZ= -5.4822E-03              YY= -1.5251E+01
                  YZ=  2.9478E-04              ZZ= -1.5770E+01
      In traceless form (Debye*Ang)
                  XX= -1.5569E+00              XY=  1.3955E-02              XZ= -8.2233E-03              YY=  1.1677E+00
                  YZ=  4.4217E-04              ZZ=  3.8917E-01
--
 
 
      Input file to MOLDEN was generated!
 
 
      Input file to MOLDEN was generated!
 
 
      Input file to MOLDEN was generated!
 
 
      Input file to MOLDEN was generated!
 
 
      Input file to MOLDEN was generated!
 
 
      Input file to MOLDEN was generated!
 
 
      Input file to MOLDEN was generated!
 
      Average orbitals are written to the RASORB file
      Natural orbitals for root   1 are written to the RASORB.1 file
      Natural orbitals for root   2 are written to the RASORB.2 file
      Natural orbitals for root   3 are written to the RASORB.3 file
      Natural orbitals for root   4 are written to the RASORB.4 file
      Natural orbitals for root   5 are written to the RASORB.5 file
      Natural orbitals for root   6 are written to the RASORB.6 file
      Spin density orbitals for root   1 are written to the SPDORB.1 file
      Spin density orbitals for root   2 are written to the SPDORB.2 file
      Spin density orbitals for root   3 are written to the SPDORB.3 file
      Spin density orbitals for root   4 are written to the SPDORB.4 file
      Spin density orbitals for root   5 are written to the SPDORB.5 file
      Spin density orbitals for root   6 are written to the SPDORB.6 file
 
--- Stop Module: rasscf at Fri Mar 22 12:48:02 2024 /rc=_RC_ALL_IS_WELL_ ---
--- Module rasscf spent 2 seconds ---

>>> COPY MOLCAS.rasscf.molden MOLCAS.1.molden

*** symbolic link created: INPORB -> MOLCAS.RasOrb
--- Start Module: caspt2 at Fri Mar 22 12:48:02 2024 ---
 
()()()()()()()()()()()()()()()()()()()()()()()()()()()()()()()()()()()()()()()()()()()()()()()()()()

                                              &CASPT2

                                   only a single process is used
                       available to each process: 10 GB of memory, 1 thread?
                                            pid: 1885325
()()()()()()()()()()()()()()()()()()()()()()()()()()()()()()()()()()()()()()()()()()()()()()()()()()
 
 ###############################################################################
 ###############################################################################
 ###                                                                         ###
 ###                                                                         ###
 ###    WARNING: Too large iRlxRoot.                                         ###
 ###                                                                         ###
 ###                                                                         ###
 ###############################################################################
 ###############################################################################
  Reset to NSTATE=                     3
 
++    Wave function specifications:
      -----------------------------
 
      Number of closed shell electrons           0
      Number of electrons in active shells       8
      Max number of holes in RAS1 space          0
      Max number of electrons in RAS3 space      0
      Number of inactive orbitals                0
      Number of active orbitals                  6
      Number of secondary orbitals              17
      Spin quantum number                      0.0
      State symmetry                             1
      Number of CSFs                           105
      Number of CASSCF root(s) available         6
      CASPT2 state passed to geometry opt.       3
      A file JOBMIX will be created
      This is a MULTI-STATE CASSCF reference
      Number of CI roots used                    3
      These are:                                 1   2   3
      Off-diagonal elements of Heff are computed
--
 
++    Orbital specifications:
      -----------------------
 
      Symmetry species                           1
                                                 a
      Frozen orbitals                            5
      Inactive orbitals                          0
      Active orbitals                            6
      Secondary orbitals                        17
      Deleted orbitals                           0
      Number of basis functions                 28
--
 
++    CASPT2 specifications:
      ----------------------
 
      Type of calculation                        MS-CASPT2
      Fock operator                              state-specific
      IPEA shift                                 0.25
      Real shift                                 0.00
      Imaginary shift                            0.00
      The input orbitals will be transformed to quasi-canonical
--
 
--------------------------------------------------------------------------------
 Estimated memory requirements:
  POLY3 :                   257654
  RHS:                      259460
  SIGMA :                   264688
  PRPCTL:                        0
 Available workspace:   1124990536
 
++ CASPT2 computation for group   1
 
********************************************************************************
 Multi-State initialization phase begins for group   1
--------------------------------------------------------------------------------
********************************************************************************
 Compute H0 matrices for state    1
--------------------------------------------------------------------------------
--------------------------------------------------------------------------------
 H0 matrices have been computed.
 
********************************************************************************
  CASPT2 EQUATION SOLUTION
--------------------------------------------------------------------------------
 
  Total nr of CASPT2 parameters:
   Before reduction:        8925
   After  reduction:        8466
 
 Variance of |WF0>:       0.3241216843
 
 The contributions to the second order correlation energy in atomic units.
-----------------------------------------------------------------------------------------------------------------------------
  IT.      VJTU        VJTI        ATVX        AIVX        VJAI        BVAT        BJAT        BJAI        TOTAL       RNORM  
-----------------------------------------------------------------------------------------------------------------------------
   1     0.000000    0.000000   -0.042943    0.000000    0.000000   -0.083522    0.000000    0.000000   -0.126465    0.000548
   2     0.000000    0.000000   -0.042999    0.000000    0.000000   -0.083522    0.000000    0.000000   -0.126521    0.000019
-----------------------------------------------------------------------------------------------------------------------------
 
  FINAL CASPT2 RESULT:
 
      Reference energy:        -398.6915358565
      E2 (Non-variational):      -0.1265218682
      E2 (Variational):          -0.1265218334
      Total energy:            -398.8180576899
      Residual norm:              0.0000006573
      Reference weight:           0.95013
 
      Contributions to the CASPT2 correlation energy
      Active & Virtual Only:         -0.1265218682
      One Inactive Excited:           0.0000000000
      Two Inactive Excited:           0.0000000000
 
 
++ Denominators, etc.
--------------------------------------------------------------------------------------------------------------
 Report on small energy denominators, large coefficients, and large energy contributions.
CASE  SYMM ACTIVE-MIX  NON-ACTIVE INDICES          DENOMINATOR     RHS VALUE       COEFFICIENT     CONTRIBUTION
ATVX     1  Mu1.0019  Se1.013                       1.70178989     -0.06771032      0.03869282     -0.00261990
ATVX     1  Mu1.0013  Se1.015                       1.69834968      0.05530978     -0.03120250     -0.00172580
ATVX     1  Mu1.0016  Se1.016                       1.83067018     -0.06574996      0.03569565     -0.00234699
ATVX     1  Mu1.0013  Se1.018                       1.78840567      0.04638275     -0.02548708     -0.00118216
ATVX     1  Mu1.0026  Se1.018                       2.22956684      0.05880463     -0.02594201     -0.00152551
ATVX     1  Mu1.0007  Se1.019                       1.75236003     -0.04590644      0.02602378     -0.00119466
ATVX     1  Mu1.0009  Se1.019                       1.76599001      0.05375197     -0.03032874     -0.00163023
ATVX     1  Mu1.0024  Se1.019                       2.21358965      0.05837439     -0.02604436     -0.00152032
BVATP    1  Mu1.0005  Se1.013 Se1.012               2.05321354     -0.05265625      0.02516509     -0.00132510
BVATP    1  Mu1.0001  Se1.015 Se1.015               2.15251931     -0.07371359      0.03415184     -0.00251745
BVATP    1  Mu1.0006  Se1.016 Se1.016               2.47408008     -0.06908212      0.02790970     -0.00192806
BVATP    1  Mu1.0001  Se1.018 Se1.018               2.33263129     -0.07502779      0.03216187     -0.00241303
BVATP    1  Mu1.0001  Se1.019 Se1.019               2.35674617     -0.07593890      0.03222193     -0.00244690
BVATM    1  Mu1.0001  Se1.015 Se1.014               2.22176692     -0.06345316      0.02784745     -0.00176701
BVATM    1  Mu1.0001  Se1.018 Se1.013               2.21395291      0.08152556     -0.03626037     -0.00295615
BVATM    1  Mu1.0002  Se1.019 Se1.013               2.23362589     -0.06306314      0.02788316     -0.00175840
BVATM    1  Mu1.0002  Se1.019 Se1.016               2.40503423     -0.06851404      0.02841815     -0.00194704
BVATM    1  Mu1.0002  Se1.020 Se1.019               2.46603111      0.06218682     -0.02557001     -0.00159012
--
 
   (Skipping property calculation,
    use PROP keyword to activate)
--
 
++ CASPT2 computation for group   2
 
********************************************************************************
 Multi-State initialization phase begins for group   2
--------------------------------------------------------------------------------
********************************************************************************
 Compute H0 matrices for state    2
--------------------------------------------------------------------------------
--------------------------------------------------------------------------------
 H0 matrices have been computed.
 
********************************************************************************
  CASPT2 EQUATION SOLUTION
--------------------------------------------------------------------------------
 
  Total nr of CASPT2 parameters:
   Before reduction:        8925
   After  reduction:        7820
 
 Variance of |WF0>:       0.3231079019
 
 The contributions to the second order correlation energy in atomic units.
-----------------------------------------------------------------------------------------------------------------------------
  IT.      VJTU        VJTI        ATVX        AIVX        VJAI        BVAT        BJAT        BJAI        TOTAL       RNORM  
-----------------------------------------------------------------------------------------------------------------------------
   1     0.000000    0.000000   -0.051737    0.000000    0.000000   -0.078769    0.000000    0.000000   -0.130506    0.000503
   2     0.000000    0.000000   -0.051788    0.000000    0.000000   -0.078772    0.000000    0.000000   -0.130560    0.000020
-----------------------------------------------------------------------------------------------------------------------------
 
  FINAL CASPT2 RESULT:
 
      Reference energy:        -398.5082009086
      E2 (Non-variational):      -0.1305614630
      E2 (Variational):          -0.1305614174
      Total energy:            -398.6387623259
      Residual norm:              0.0000006909
      Reference weight:           0.94549
 
      Contributions to the CASPT2 correlation energy
      Active & Virtual Only:         -0.1305614630
      One Inactive Excited:           0.0000000000
      Two Inactive Excited:           0.0000000000
 
 
++ Denominators, etc.
--------------------------------------------------------------------------------------------------------------
 Report on small energy denominators, large coefficients, and large energy contributions.
CASE  SYMM ACTIVE-MIX  NON-ACTIVE INDICES          DENOMINATOR     RHS VALUE       COEFFICIENT     CONTRIBUTION
ATVX     1  Mu1.0026  Se1.013                       1.63683166     -0.08076205      0.04920860     -0.00397419
ATVX     1  Mu1.0027  Se1.016                       1.80909933      0.06463150     -0.03582262     -0.00231527
ATVX     1  Mu1.0046  Se1.018                       2.18727032      0.05897899     -0.02686006     -0.00158418
ATVX     1  Mu1.0048  Se1.019                       2.23658796     -0.06138924      0.02735301     -0.00167918
ATVX     1  Mu1.0008  Se1.020                       1.36095961      0.04506389     -0.03287551     -0.00148150
ATVX     1  Mu1.0009  Se1.021                       1.67148019     -0.07908642      0.04705540     -0.00372144
ATVX     1  Mu1.0008  Se1.022                       1.67546777      0.06660777     -0.03945048     -0.00262771
BVATP    1  Mu1.0008  Se1.016 Se1.016               2.50621756     -0.07142520      0.02846391     -0.00203304
BVATM    1  Mu1.0005  Se1.016 Se1.012               2.26599049      0.05942819     -0.02609546     -0.00155081
BVATM    1  Mu1.0003  Se1.018 Se1.013               2.18912873      0.06577887     -0.02970698     -0.00195409
--
 
   (Skipping property calculation,
    use PROP keyword to activate)
--
 
++ CASPT2 computation for group   3
 
********************************************************************************
 Multi-State initialization phase begins for group   3
--------------------------------------------------------------------------------
********************************************************************************
 Compute H0 matrices for state    3
--------------------------------------------------------------------------------
--------------------------------------------------------------------------------
 H0 matrices have been computed.
 
********************************************************************************
  CASPT2 EQUATION SOLUTION
--------------------------------------------------------------------------------
 
  Total nr of CASPT2 parameters:
   Before reduction:        8925
   After  reduction:        7820
 
 Variance of |WF0>:       0.3174027846
 
 The contributions to the second order correlation energy in atomic units.
-----------------------------------------------------------------------------------------------------------------------------
  IT.      VJTU        VJTI        ATVX        AIVX        VJAI        BVAT        BJAT        BJAI        TOTAL       RNORM  
-----------------------------------------------------------------------------------------------------------------------------
   1     0.000000    0.000000   -0.052528    0.000000    0.000000   -0.078976    0.000000    0.000000   -0.131504    0.000643
   2     0.000000    0.000000   -0.052589    0.000000    0.000000   -0.078996    0.000000    0.000000   -0.131585    0.000023
-----------------------------------------------------------------------------------------------------------------------------
 
  FINAL CASPT2 RESULT:
 
      Reference energy:        -398.4785771535
      E2 (Non-variational):      -0.1315864851
      E2 (Variational):          -0.1315864335
      Total energy:            -398.6101635869
      Residual norm:              0.0000008294
      Reference weight:           0.94163
 
      Contributions to the CASPT2 correlation energy
      Active & Virtual Only:         -0.1315864851
      One Inactive Excited:           0.0000000000
      Two Inactive Excited:           0.0000000000
 
 
++ Denominators, etc.
--------------------------------------------------------------------------------------------------------------
 Report on small energy denominators, large coefficients, and large energy contributions.
CASE  SYMM ACTIVE-MIX  NON-ACTIVE INDICES          DENOMINATOR     RHS VALUE       COEFFICIENT     CONTRIBUTION
ATVX     1  Mu1.0001  Se1.013                       0.55820871     -0.03291689      0.05820928     -0.00191607
ATVX     1  Mu1.0009  Se1.013                       1.17280068     -0.02958166      0.02514077     -0.00074371
ATVX     1  Mu1.0027  Se1.013                       1.65499000      0.06770380     -0.04058721     -0.00274791
ATVX     1  Mu1.0038  Se1.013                       1.75822255      0.04834677     -0.02709654     -0.00131003
ATVX     1  Mu1.0001  Se1.014                       0.61811121      0.01644362     -0.02526954     -0.00041552
ATVX     1  Mu1.0030  Se1.016                       1.81813895      0.05866687     -0.03236774     -0.00189891
ATVX     1  Mu1.0034  Se1.017                       1.88340893      0.05517651     -0.02885105     -0.00159190
ATVX     1  Mu1.0002  Se1.018                       0.99518551      0.03091246     -0.02978394     -0.00092069
ATVX     1  Mu1.0051  Se1.018                       2.23477646     -0.06175775      0.02754521     -0.00170113
ATVX     1  Mu1.0048  Se1.019                       2.19033145      0.06630452     -0.03014727     -0.00199890
ATVX     1  Mu1.0027  Se1.020                       1.85965718      0.06598190     -0.03536088     -0.00233318
ATVX     1  Mu1.0009  Se1.022                       1.69180484     -0.05333254      0.03108041     -0.00165760
BVATP    1  Mu1.0008  Se1.014 Se1.014               2.29958619     -0.05921045      0.02551461     -0.00151073
BVATP    1  Mu1.0008  Se1.018 Se1.018               2.52932556     -0.06527294      0.02586756     -0.00168845
BVATM    1  Mu1.0005  Se1.016 Se1.012               2.23442694      0.06319008     -0.02793184     -0.00176502
BVATM    1  Mu1.0004  Se1.018 Se1.013               2.20071954     -0.06698029      0.02992595     -0.00200445
BVATM    1  Mu1.0003  Se1.019 Se1.016               2.33292708      0.05894473     -0.02522726     -0.00148701
--
 
   (Skipping property calculation,
    use PROP keyword to activate)
--
 
  Total CASPT2 energies:
::    CASPT2 Root  1     Total energy:   -398.81805769
::    CASPT2 Root  2     Total energy:   -398.63876233
::    CASPT2 Root  3     Total energy:   -398.61016359
 
++ Multi-State CASPT2 section:
********************************************************************************
  MULTI-STATE CASPT2 SECTION
--------------------------------------------------------------------------------
 
  Output diagonal energies have been shifted. Add   -398.000000000000     
 
  Effective Hamiltonian matrix (Symmetric):
 
                1               2               3
   1        -0.81805769
   2        -0.00000008     -0.63876233
   3        -0.00000004     -0.00000026     -0.61016359
 
       Total MS-CASPT2 energies:
::    MS-CASPT2 Root  1     Total energy:   -398.81805769
::    MS-CASPT2 Root  2     Total energy:   -398.63876233
::    MS-CASPT2 Root  3     Total energy:   -398.61016359
 
       Eigenvectors:
            1.00000000     -0.00000043     -0.00000017
            0.00000043      1.00000000     -0.00000909
            0.00000017      0.00000909      1.00000000
 
--
 
  THE ORIGINAL CI ARRAYS ARE NOW MIXED AS LINEAR
  COMBINATIONS, GIVEN BY THE EIGENVECTORS.
  A NEW JOBIPH FILE NAMED 'JOBMIX' IS PREPARED.
********************************************************************************
 
++ Mixed CI coefficients:
  The CI coefficients for the MIXED state nr.   1
--------------------------------------------------------------------------------
 CI COEFFICIENTS LARGER THAN  0.10D+00
  Occupation of active orbitals, and spin coupling
  of open shells. (u,d: Spin up or down).
  SGUGA info is (Midvert:IsyUp:UpperWalk/LowerWalk)
        Conf  SGUGA info        Occupation    Coefficient         Weight
           1  ( 1:1:   1/   1)   222200         -0.971709       0.944219
          15  ( 2:1:   1/   2)   2u22d0          0.109246       0.011935
          38  ( 3:1:   2/   2)   2ud2ud          0.109199       0.011925
 
  The CI coefficients for the MIXED state nr.   2
--------------------------------------------------------------------------------
 CI COEFFICIENTS LARGER THAN  0.10D+00
  Occupation of active orbitals, and spin coupling
  of open shells. (u,d: Spin up or down).
  SGUGA info is (Midvert:IsyUp:UpperWalk/LowerWalk)
        Conf  SGUGA info        Occupation    Coefficient         Weight
           2  ( 1:1:   2/   1)   222ud0          0.975391       0.951388
          10  ( 2:1:   4/   1)   22udud          0.109065       0.011895
 
  The CI coefficients for the MIXED state nr.   3
--------------------------------------------------------------------------------
 CI COEFFICIENTS LARGER THAN  0.10D+00
  Occupation of active orbitals, and spin coupling
  of open shells. (u,d: Spin up or down).
  SGUGA info is (Midvert:IsyUp:UpperWalk/LowerWalk)
        Conf  SGUGA info        Occupation    Coefficient         Weight
           4  ( 1:1:   4/   1)   222u0d         -0.961838       0.925132
           8  ( 2:1:   2/   1)   22ud20         -0.113025       0.012775
          18  ( 2:1:   4/   2)   2u2dud         -0.165205       0.027293
          51  ( 3:1:   3/   4)   202u2d         -0.105880       0.011211
 
--
 
--- Stop Module: caspt2 at Fri Mar 22 12:48:02 2024 /rc=_RC_ALL_IS_WELL_ ---

>>> COPY MOLCAS.JobMix MOLCAS.1.JobIph

>>> COPY /public/manganese/scratch/tmp/sascha.925337/SAVE/MOLCAS.2.JobIph.0 JOBOLD

*** symbolic link created: INPORB -> MOLCAS.RasOrb
--- Start Module: rasscf at Fri Mar 22 12:48:02 2024 ---
 
()()()()()()()()()()()()()()()()()()()()()()()()()()()()()()()()()()()()()()()()()()()()()()()()()()

                                              &RASSCF

                                   only a single process is used
                       available to each process: 10 GB of memory, 1 thread?
                                            pid: 1885328
()()()()()()()()()()()()()()()()()()()()()()()()()()()()()()()()()()()()()()()()()()()()()()()()()()
 
 
      Header of the ONEINT file:
      --------------------------
      
      Integrals generated by Gateway/Seward, Fri Mar 22 12:47:59 2024
 
 
      OrdInt status: non-squared
 
 
      Cartesian coordinates in Angstrom:
      -----------------------------------------------------
      No.  Label        X            Y            Z        
      -----------------------------------------------------
       1   S1         0.00000000   0.00000000   0.00084100
       2   H2         0.00000000   0.97479900   1.18293400
       3   H3        -0.01000000  -0.97479900   1.18293400
      -----------------------------------------------------
      Nuclear repulsion energy =   11.32331568
 
++    Wave function specifications:
      -----------------------------
 
      Number of closed shell electrons          10
      Number of electrons in active shells       7
      Max number of holes in RAS1 space          0
      Max nr of electrons in RAS3 space          0
      Number of inactive orbitals                5
      Number of active orbitals                  6
      Number of secondary orbitals              17
      Spin quantum number                      0.5
      State symmetry                             1
--
 
++    Orbital specifications:
      -----------------------
 
      Symmetry species                           1
                                                 a
      Frozen orbitals                            0
      Inactive orbitals                          5
      Active orbitals                            6
      RAS1 orbitals                              0
      RAS2 orbitals                              6
      RAS3 orbitals                              0
      Secondary orbitals                        17
      Deleted orbitals                           0
      Number of basis functions                 28
--
 
++    CI expansion specifications:
      ----------------------------
 
      Number of CSFs                           210
      Number of determinants                   300
      Number of root(s) required                 4
      Root chosen for geometry opt.              4
      CI roots used                              1     2     3     4
      weights                                0.250 0.250 0.250 0.250
      highest root included in the CI            4
      max. size of the explicit Hamiltonian    200
--
 
++    Optimization specifications:
      ----------------------------
 
      RASSCF algorithm: LK RI/DF
      Maximum number of macro iterations       200
      Maximum number of SX iterations          100
      Threshold for RASSCF energy            0.100E-07
      Threshold for max MO rotation          0.100E-03
      Threshold for max BLB element          0.100E-03
      Level shift parameter                  0.500E+00
      Make Quasi-Newton update
--
 
      The MO-coefficients are taken from the file:
      JOBOLD
      Title:(No title given)                                                        
 
      Total molecular charge    1.00
 
      ************************************************************************************************************************
      *                                                                                                                      *
      *                                            Wave function control section                                             *
      *                                                                                                                      *
      ************************************************************************************************************************
 
 
                                         RASSCF iterations: Energy and convergence statistics
                                         ----------------------------------------------------
 
      Iter CI   SX   CI       RASSCF       Energy    max ROT     max BLB   max BLB  Level Ln srch  Step   QN   Walltime
          iter iter root      energy       change     param      element    value   shift minimum  type update hh:mm:ss
 Nr of preliminary CI iterations:   3
        1   1    4    0  -398.22922163    0.00E+00  -0.66E-03*   7  26 1  0.63E-03*  0.00   0.00    SX    NO    0:00:00
        2   1    3    0  -398.22922335   -0.17E-05*  0.15E-03*   7  17 1 -0.84E-04   0.00   0.00    SX    NO    0:00:00
        3   1    3    0  -398.22922340   -0.52E-07*  0.38E-04    8  17 1  0.21E-04   0.00   0.00    SX    NO    0:00:00
        4   4    3    0  -398.22922384   -0.43E-06*  0.76E-04   10  17 1  0.18E-04   0.00   0.00    SX    NO    0:00:00
        5   1    3    0  -398.22922384   -0.59E-08  -0.46E-04   10  17 1  0.58E-05   0.00   1.36    QN   YES    0:00:00
      Convergence after  5 iterations
        6   3    3    0  -398.22922384   -0.11E-08  -0.46E-04    8  17 1 -0.27E-05   0.00   1.36    QN   YES    0:00:00
 
      ************************************************************************************************************************
                                                      Wave function printout:
                       occupation of active orbitals, and spin coupling of open shells (u,d: Spin up or down)
      ************************************************************************************************************************
 
      Note: transformation to natural orbitals
      has been made, which may change the order of the CSFs.
 
      printout of CI-coefficients larger than  0.05 for root  1
      energy=    -398.367698
      conf/sym  111111     Coeff  Weight
             1  222u00  -0.97372 0.94814
            14  2u2du0  -0.05819 0.00339
            32  220u20  -0.08142 0.00663
            37  220u02  -0.06079 0.00370
            42  2ududu  -0.06368 0.00405
            44  2uduud  -0.10404 0.01082
            56  202u20  -0.10752 0.01156
 
      printout of CI-coefficients larger than  0.05 for root  2
      energy=    -398.233634
      conf/sym  111111     Coeff  Weight
             4  22u200   0.97388 0.94845
            39  2ud2u0  -0.06545 0.00428
            49  u2d20u  -0.06911 0.00478
            57  20220u  -0.07376 0.00544
            63  ud22u0  -0.08141 0.00663
           107  2u02du   0.05340 0.00285
           109  2u02ud   0.06349 0.00403
           124  20u220   0.10828 0.01172
           129  20u202   0.05132 0.00263
 
      printout of CI-coefficients larger than  0.05 for root  3
      energy=    -398.220618
      conf/sym  111111     Coeff  Weight
             2  2220u0  -0.08647 0.00748
            13  2u2200  -0.96106 0.92364
            31  2202u0   0.06819 0.00465
            41  2ud20u   0.12304 0.01514
            47  u2d2u0   0.08530 0.00728
            55  2022u0   0.10655 0.01135
           106  2u0220   0.08749 0.00766
           111  2u0202   0.06509 0.00424
           127  20u2ud   0.08700 0.00757
 
      printout of CI-coefficients larger than  0.05 for root  4
      energy=    -398.094945
      conf/sym  111111     Coeff  Weight
             2  2220u0  -0.95501 0.91204
             9  22u0du   0.06454 0.00417
            11  22u0ud   0.12521 0.01568
            13  2u2200   0.08803 0.00775
            16  2u2020   0.12953 0.01678
            21  2u2002   0.08016 0.00643
            29  u220ud   0.05398 0.00291
            31  2202u0   0.06480 0.00420
            38  2200u2  -0.06202 0.00385
            43  2ud02u  -0.08578 0.00736
            47  u2d2u0  -0.06245 0.00390
            62  2020u2  -0.05283 0.00279
            71  0222u0   0.07858 0.00618
 
      Natural orbitals and occupation numbers for root  1
      sym 1:   1.994887   1.949417   1.958168   1.000000   0.059659   0.037869
 
      Natural orbitals and occupation numbers for root  2
      sym 1:   1.979337   1.938112   1.006422   1.998398   0.047473   0.030259
 
      Natural orbitals and occupation numbers for root  3
      sym 1:   1.986200   1.013666   1.932824   1.981523   0.049383   0.036403
 
      Natural orbitals and occupation numbers for root  4
      sym 1:   1.977378   1.971989   1.951000   0.048802   0.992338   0.058493
 
      ************************************************************************************************************************
      *                                                                                                                      *
      *                                                    Final results                                                     *
      *                                                                                                                      *
      ************************************************************************************************************************
 
 
++    Wave function specifications:
      -----------------------------
 
      Number of closed shell electrons          10
      Number of electrons in active shells       7
      Max number of holes in RAS1 space          0
      Max nr of electrons in RAS3 space          0
      Number of inactive orbitals                5
      Number of active orbitals                  6
      Number of secondary orbitals              17
      Spin quantum number                      0.5
      State symmetry                             1
--
 
++    Orbital specifications:
      -----------------------
 
      Symmetry species                           1
                                                 a
      Frozen orbitals                            0
      Inactive orbitals                          5
      Active orbitals                            6
      RAS1 orbitals                              0
      RAS2 orbitals                              6
      RAS3 orbitals                              0
      Secondary orbitals                        17
      Deleted orbitals                           0
      Number of basis functions                 28
--
 
++    CI expansion specifications:
      ----------------------------
 
      Number of CSFs                           210
      Number of determinants                   300
      Number of root(s) required                 4
      CI roots used                              1     2     3     4
      weights                                0.250 0.250 0.250 0.250
      highest root included in the CI            4
      Root passed to geometry opt.               4
--
 
++    Final optimization conditions:
      ------------------------------
 
      Average CI energy                            -398.22922384
      RASSCF energy for state  4                   -398.09494484
      Super-CI energy                                -0.00000000
      RASSCF energy change                            0.00000000
      Max change in MO coefficients               0.145E-03
      Max non-diagonal density matrix element    -0.457E-04
      Maximum BLB matrix element                 -0.274E-05
      (orbital pair   8,  17 in symmetry   1)
      Norm of electronic gradient            0.802E-01
--
 
 
      Final state energy(ies):
      ------------------------
 
::    RASSCF root number  1 Total energy:   -398.36769819
::    RASSCF root number  2 Total energy:   -398.23363399
::    RASSCF root number  3 Total energy:   -398.22061836
::    RASSCF root number  4 Total energy:   -398.09494484
 
++    Molecular orbitals:
      -------------------
 
      Pseudonatural active orbitals and approximate occupation numbers
 
 
 
 
      Molecular orbitals for symmetry species 1: a  
 
 
      Orbital                 1         2         3         4         5         6         7         8         9        10
      Energy           -92.3785   -9.3717   -7.0505   -7.0504   -7.0501   -1.2719   -0.0000    0.0000    0.0013   -0.0000
      Occ. No.           2.0000    2.0000    2.0000    2.0000    2.0000    1.9821    1.7100    1.7117    1.2572    0.2956
 
     1 S1     1s         1.0000    0.0001    0.0000   -0.0000   -0.0000    0.0040    0.0000   -0.0026   -0.0000   -0.0000
     2 S1     2s         0.0001    1.0010   -0.0047    0.0000    0.0000    0.0312    0.0000   -0.0257   -0.0000   -0.0000
     3 S1     3s         0.0004   -0.0002    0.0060   -0.0000   -0.0000    1.0002    0.0006   -0.4141   -0.0000   -0.0000
     4 S1     *s        -0.0003   -0.0043   -0.0023    0.0000    0.0000   -0.1152    0.0000   -0.0030   -0.0000   -0.0000
     5 S1     2px       -0.0000   -0.0000   -0.0038    0.0048    0.9999    0.0000    0.0000   -0.0000    0.0085    0.0001
     6 S1     3px       -0.0000   -0.0000   -0.0000    0.0000   -0.0003   -0.0005    0.0042   -0.0036    1.0752    0.0044
     7 S1     *px        0.0000    0.0000    0.0000   -0.0000    0.0005    0.0001   -0.0008    0.0006   -0.0913    0.0002
     8 S1     2py        0.0000    0.0000    0.0003    1.0000   -0.0048   -0.0000    0.0005    0.0000   -0.0000    0.0255
     9 S1     3py        0.0000    0.0000    0.0000    0.0005    0.0000    0.0000    0.8106    0.0013   -0.0055    0.8683
    10 S1     *py       -0.0000   -0.0000   -0.0000   -0.0001   -0.0000   -0.0000   -0.1562   -0.0002    0.0005    0.0436
    11 S1     2pz        0.0001    0.0056    1.0000   -0.0003    0.0038   -0.0084   -0.0000   -0.0000    0.0000   -0.0000
    12 S1     3pz        0.0001    0.0023    0.0012   -0.0000   -0.0000    0.1199   -0.0013    0.8305    0.0046   -0.0001
    13 S1     *pz       -0.0001   -0.0034   -0.0004    0.0000    0.0000   -0.0263    0.0002   -0.1415   -0.0004    0.0000
    14 S1     *d2-       0.0000    0.0000    0.0000   -0.0000    0.0000    0.0001   -0.0003    0.0002    0.0000    0.0007
    15 S1     *d1-       0.0000    0.0000    0.0000    0.0005   -0.0000    0.0000    0.0769    0.0001   -0.0001   -0.1650
    16 S1     *d0       -0.0000    0.0001    0.0005   -0.0000    0.0000    0.0106   -0.0001    0.0420    0.0002    0.0000
    17 S1     *d1+       0.0000   -0.0000   -0.0000    0.0000    0.0003   -0.0001    0.0004   -0.0004    0.0214   -0.0008
    18 S1     *d2+      -0.0000   -0.0000   -0.0001    0.0000   -0.0000   -0.0086    0.0000   -0.0198   -0.0001   -0.0000
    19 H2     1s         0.0000   -0.0005    0.0018    0.0008   -0.0000    0.2284    0.4995    0.4081    0.0000   -0.7257
    20 H2     *s         0.0001    0.0022   -0.0007   -0.0003    0.0000   -0.1109   -0.1500   -0.1326   -0.0000   -0.0572
    21 H2     *px       -0.0000    0.0000    0.0000    0.0000    0.0000   -0.0000    0.0000   -0.0001    0.0174    0.0000
[...]
     -----------------------------------------------------------------------------------------------
         1    9       1.08225712E-04  1.50290247E+05  4.26331272E+00  2.80848920E+00  1.50297319E+05
         2    7       5.12913524E-03  1.99836151E+00  7.59554352E+04  2.18861759E-04  7.59574337E+04
         3    5       1.17511960E-05  2.27423197E-03  8.64242570E+01  4.57074439E-07  8.64265317E+01
         3    8       5.11513691E-03  1.99510599E+00  7.58288332E+04  4.48852084E-04  7.58308288E+04
         4    6       5.12583206E-03  1.99451705E+00  7.58092208E+04  2.18296318E-04  7.58112155E+04
         5    9       7.60070091E-03  5.26178159E+00  2.00177488E+05  1.65337781E-03  2.00182752E+05
         6   11       2.54349880E-04  3.05886857E+04  8.05179828E-01  5.49228964E-01  3.05900402E+04
         7   12       2.54312707E-04  3.05793109E+04  8.04921061E-01  5.49087812E-01  3.05806649E+04
         8    9       1.99694578E-05  8.37049205E-03  3.18490290E+02  2.66374887E-06  3.18498663E+02
         8   10       2.53248029E-04  3.04339023E+04  8.01094917E-01  5.46447832E-01  3.04352498E+04
        13   15       2.07574842E-03  1.09874532E+06  3.78116802E+01  1.76134113E+01  1.09880075E+06
        13   16       6.30923061E-03  3.33963131E+06  1.14073899E+02  5.59233351E+01  3.33980131E+06
        13   17       1.19464550E-05  7.84713874E+03  7.62218593E+01  1.71131995E-01  7.92353173E+03
        14   15       6.30923061E-03  3.33963131E+06  1.14073899E+02  5.59233351E+01  3.33980131E+06
        14   16       2.07574842E-03  1.09874532E+06  3.78116802E+01  1.76134113E+01  1.09880075E+06
        14   18       1.19464550E-05  7.84713874E+03  7.62218595E+01  1.71131995E-01  7.92353173E+03
        15   17       3.15389024E-04  1.76294403E-01  2.37493694E+03  3.20780301E+00  2.37832104E+03
        15   18       1.04927368E-04  6.16184952E-02  7.81331346E+02  9.85513945E+00  7.91248104E+02
        16   17       1.04927368E-04  6.16184952E-02  7.81331346E+02  9.85513945E+00  7.91248104E+02
        16   18       3.15389024E-04  1.76294403E-01  2.37493694E+03  3.20780301E+00  2.37832104E+03
        19   25       2.67052762E-04  1.16075678E-03  4.39940828E+01  1.56812215E-04  4.39954004E+01
        19   27       7.20382392E-04  2.90556657E+00  2.04002478E+00  1.60957082E+05  1.60962028E+05
        19   28       2.57281187E-05  1.40906744E-01  5.73242079E+03  1.61215154E+01  5.74868321E+03
        19   29       2.15973987E-04  1.26043791E+00  4.82520519E+04  5.55379844E+00  4.82588662E+04
        19   30       7.05944093E-03  2.84047309E+01  9.03416588E+00  1.57737760E+06  1.57741504E+06
        20   26       2.67052762E-04  1.16075678E-03  4.39940828E+01  1.56812215E-04  4.39954004E+01
        20   27       2.57281187E-05  1.40906744E-01  5.73242079E+03  1.61215154E+01  5.74868321E+03
        20   28       7.20382393E-04  2.90556658E+00  2.04002479E+00  1.60957083E+05  1.60962028E+05
        20   29       7.05944093E-03  2.84047309E+01  9.03416587E+00  1.57737760E+06  1.57741504E+06
        20   30       2.15973987E-04  1.26043791E+00  4.82520519E+04  5.55379844E+00  4.82588662E+04
        21   23       2.57812392E-04  1.04428582E-03  3.95798558E+01  1.44037427E-04  3.95810441E+01
        21   27       2.39998084E-05  1.38211998E-01  5.35230973E+03  5.29571422E+00  5.35774366E+03
        21   28       7.17888401E-03  2.88536213E+01  9.02992527E+00  1.60258409E+06  1.60262197E+06
        21   29       7.35044849E-04  2.95582102E+00  1.02591818E+00  1.64094031E+05  1.64098013E+05
        22   24       2.57812392E-04  1.04428582E-03  3.95798558E+01  1.44037427E-04  3.95810441E+01
        22   27       7.17888401E-03  2.88536213E+01  9.02992527E+00  1.60258409E+06  1.60262197E+06
        22   28       2.39998084E-05  1.38211998E-01  5.35230973E+03  5.29571422E+00  5.35774365E+03
        22   30       7.35044848E-04  2.95582102E+00  1.02591818E+00  1.64094031E+05  1.64098013E+05
        23   27       1.68403720E-05  6.14011928E-02  9.82728492E+00  3.55498102E+03  3.56486971E+03
        23   28       1.07489886E-02  5.97735913E+01  2.27534353E+06  6.27836620E+00  2.27540958E+06
        23   29       1.44259153E-03  8.02424778E+00  3.05378705E+05  6.60131425E-01  3.05387389E+05
        24   27       1.07489886E-02  5.97735913E+01  2.27534353E+06  6.27836620E+00  2.27540958E+06
        24   28       1.68403720E-05  6.14011928E-02  9.82728492E+00  3.55498102E+03  3.56486971E+03
        24   30       1.44259153E-03  8.02424777E+00  3.05378705E+05  6.60131426E-01  3.05387389E+05
        25   27       1.42107843E-03  7.90244827E+00  3.00507317E+05  4.24570732E-01  3.00515644E+05
        25   28       1.59969870E-05  5.20955290E-02  2.21859675E+01  3.36064690E+03  3.38288496E+03
        25   29       1.35997518E-04  5.09678041E-01  9.07462994E+00  2.87508718E+04  2.87604561E+04
        25   30       1.05567565E-02  5.86520830E+01  2.23245550E+06  5.50408617E+00  2.23251965E+06
        26   27       1.59969870E-05  5.20955289E-02  2.21859675E+01  3.36064689E+03  3.38288496E+03
        26   28       1.42107843E-03  7.90244828E+00  3.00507318E+05  4.24570733E-01  3.00515645E+05
        26   29       1.05567565E-02  5.86520830E+01  2.23245550E+06  5.50408617E+00  2.23251965E+06
        26   30       1.35997518E-04  5.09678041E-01  9.07462993E+00  2.87508718E+04  2.87604561E+04
     -----------------------------------------------------------------------------------------------
--
 
++ Velocity transition strengths (SO states):
   ------------------------------------------
        for osc. strength at least   1.00000000E-05
 
      From   To        Osc. strength     Einstein coefficients Ax, Ay, Az (sec-1)    Total A (sec-1)
     -----------------------------------------------------------------------------------------------
         1    9       4.16736909E-03  5.78713129E+06  1.53994464E+02  1.04710291E+02  5.78738999E+06
         2    4       3.77135323E-02  2.08918559E-06  7.93948537E-02  7.17548292E-10  7.93969436E-02
         2    7       1.07624997E-02  4.19387827E+00  1.59377809E+05  1.44040924E-03  1.59382004E+05
         3    5       6.23585282E-05  1.20616317E-02  4.58616256E+02  5.25597496E-06  4.58628322E+02
         3    8       1.07260970E-02  4.18415550E+00  1.59007946E+05  1.43552323E-03  1.59012132E+05
         4    6       1.07693565E-02  4.19117593E+00  1.59274924E+05  1.43947900E-03  1.59279117E+05
         5    9       6.89040788E-04  4.83754006E-01  1.81470631E+04  7.04306648E-04  1.81475475E+04
         6    7       5.40381531E-02  1.46846677E-06  5.58046392E-02  5.04344184E-10  5.58061081E-02
         6    8       3.19400780E-05  4.43090185E-04  1.18432807E-08  7.89885564E-09  4.43109927E-04
         6   11       5.99142556E-05  7.20542079E+03  1.92243972E-01  1.28448107E-01  7.20574148E+03
         7   12       6.00092796E-05  7.21569134E+03  1.92514341E-01  1.28632597E-01  7.21601248E+03
         8   10       5.96964554E-05  7.17397754E+03  1.91400571E-01  1.27887717E-01  7.17429682E+03
        10   11       3.89161587E-04  3.18272586E-05  8.48708789E-10  5.67420462E-10  3.18286747E-05
        13   15       3.65443359E-03  1.93440043E+06  4.98758418E+01  2.99577044E+01  1.93448027E+06
        13   16       1.11076291E-02  5.87959694E+06  1.52917876E+02  9.13735065E+01  5.87984123E+06
        13   17       1.66005078E-05  1.09951411E+04  1.50381369E+01  1.70725894E-01  1.10103499E+04
        14   15       1.11076291E-02  5.87959694E+06  1.52917876E+02  9.13735065E+01  5.87984123E+06
        14   16       3.65443359E-03  1.93440043E+06  4.98758418E+01  2.99577044E+01  1.93448027E+06
        14   18       1.66005078E-05  1.09951411E+04  1.50381369E+01  1.70725894E-01  1.10103499E+04
        15   17       4.75486886E-03  1.75976016E+01  3.58384523E+04  2.73047410E-04  3.58560502E+04
        15   18       1.56440952E-03  5.83942893E+00  1.17912358E+04  1.46132737E-04  1.17970754E+04
        16   17       1.56440952E-03  5.83942893E+00  1.17912358E+04  1.46132737E-04  1.17970754E+04
        16   18       4.75486886E-03  1.75976016E+01  3.58384523E+04  2.73047410E-04  3.58560502E+04
        19   21       6.46093893E-04  7.52999121E-07  2.85250462E-02  9.86352501E-09  2.85258091E-02
        19   24       2.90099001E-04  1.21627145E-03  4.60600488E+01  2.54176056E-06  4.60612677E+01
        19   25       1.56249556E-01  6.79091938E-01  2.57405313E+04  1.53876841E-03  2.57412120E+04
        19   27       1.21646132E-03  4.91299325E+00  6.85495637E+00  2.71793990E+05  2.71805758E+05
        19   28       5.59937089E-05  3.11051632E-01  1.24842704E+04  2.66362598E+01  1.25112177E+04
        19   29       4.70228102E-04  2.76096815E+00  1.05059762E+05  8.81136201E+00  1.05071334E+05
        19   30       1.19224740E-02  4.80201260E+01  3.70740872E+01  2.66396295E+06  2.66404804E+06
        20   22       6.46093893E-04  7.52999121E-07  2.85250462E-02  9.86352470E-09  2.85258091E-02
        20   23       2.90099002E-04  1.21627145E-03  4.60600489E+01  2.54176056E-06  4.60612677E+01
        20   26       1.56249556E-01  6.79091938E-01  2.57405313E+04  1.53876841E-03  2.57412120E+04
        20   27       5.59937088E-05  3.11051632E-01  1.24842704E+04  2.66362598E+01  1.25112177E+04
        20   28       1.21646133E-03  4.91299326E+00  6.85495638E+00  2.71793990E+05  2.71805758E+05
        20   29       1.19224740E-02  4.80201260E+01  3.70740872E+01  2.66396295E+06  2.66404804E+06
        20   30       4.70228102E-04  2.76096815E+00  1.05059762E+05  8.81136200E+00  1.05071334E+05
        21   23       1.73440151E-01  7.02491663E-01  2.66269617E+04  1.76746504E-03  2.66276660E+04
        21   26       2.88165346E-04  1.21172120E-03  4.59307381E+01  2.44309922E-06  4.59319523E+01
        21   27       5.22856531E-05  3.03413352E-01  1.16632123E+04  8.79104123E+00  1.16723068E+04
        21   28       1.21344601E-02  4.88195723E+01  3.69970034E+01  2.70882441E+06  2.70891022E+06
        21   29       1.24262463E-03  5.00222379E+00  4.13728057E+00  2.77405543E+05  2.77414682E+05
        22   24       1.73440151E-01  7.02491663E-01  2.66269617E+04  1.76746504E-03  2.66276660E+04
        22   25       2.88165345E-04  1.21172120E-03  4.59307381E+01  2.44309930E-06  4.59319522E+01
        22   27       1.21344601E-02  4.88195723E+01  3.69970034E+01  2.70882441E+06  2.70891022E+06
        22   28       5.22856531E-05  3.03413352E-01  1.16632123E+04  8.79104123E+00  1.16723068E+04
        22   30       1.24262463E-03  5.00222379E+00  4.13728057E+00  2.77405543E+05  2.77414682E+05
        23   25       5.24460449E-04  7.99643552E-07  2.88561910E-02  2.23510664E-09  2.88569929E-02
        23   27       2.99419929E-05  1.08709173E-01  2.20888361E+01  6.31610089E+03  6.33829844E+03
        23   28       2.44663692E-02  1.36807377E+02  5.17904626E+06  2.90395600E+00  5.17918597E+06
        23   29       3.28318506E-03  1.83629509E+01  6.95010690E+05  2.00317587E-01  6.95029253E+05
        24   26       5.24460448E-04  7.99643551E-07  2.88561910E-02  2.23510663E-09  2.88569928E-02
        24   27       2.44663692E-02  1.36807377E+02  5.17904626E+06  2.90395600E+00  5.17918597E+06
        24   28       2.99419929E-05  1.08709173E-01  2.20888361E+01  6.31610089E+03  6.33829844E+03
        24   30       3.28318505E-03  1.83629509E+01  6.95010689E+05  2.00317588E-01  6.95029253E+05
        25   27       3.23757274E-03  1.81012673E+01  6.84631600E+05  2.36636984E-01  6.84649938E+05
        25   28       2.84960625E-05  9.09491774E-02  4.95510084E+01  5.97642416E+03  6.02606612E+03
        25   29       2.41839050E-04  9.05809025E-01  2.01330552E+01  5.11225517E+04  5.11435906E+04
        25   30       2.40481733E-02  1.34347621E+02  5.08551844E+06  2.04124462E+00  5.08565482E+06
        26   27       2.84960625E-05  9.09491773E-02  4.95510084E+01  5.97642415E+03  6.02606611E+03
        26   28       3.23757275E-03  1.81012673E+01  6.84631600E+05  2.36636984E-01  6.84649938E+05
        26   29       2.40481733E-02  1.34347621E+02  5.08551843E+06  2.04124462E+00  5.08565482E+06
        26   30       2.41839050E-04  9.05809025E-01  2.01330552E+01  5.11225517E+04  5.11435906E+04
        27   29       2.17516896E-03  4.08180676E-09  1.51200665E-04  2.40902717E-08  1.51228838E-04
        28   30       2.17516896E-03  4.08180677E-09  1.51200666E-04  2.40902718E-08  1.51228838E-04
     -----------------------------------------------------------------------------------------------
--
 
++ Length and velocity gauge comparison (SO states):
 
 --------------------------------------------------
 A comparison between the dipole oscillator strengths in 
 length and velocity gauge will be performed
 
     All dipole oscillator differences above the tolerance of   1.00000000E-01  will be printed 
 
 Due to basis set deficiency these oscillator may be problematic 
 
 The tolerance is defined as ABS(1-O_l/O_v) 
 O_l : dipole oscillator strength in length gauge
 O_p : dipole oscillator strength in velocity gauge
 --------------------------------------------------
 
  Problematic transitions have been found
 
      From   To       Difference (%) Osc. st. (len.) Osc. st. (vel.)
     ---------------------------------------------------------------
         1    9            97.403021  1.08225712E-04  4.16736909E-03
         2    4      --------------- below threshold  3.77135323E-02
         2    7            52.342528  5.12913524E-03  1.07624997E-02
         3    5            81.155431  1.17511960E-05  6.23585282E-05
         3    8            52.311293  5.11513691E-03  1.07260970E-02
         4    6            52.403543  5.12583206E-03  1.07693565E-02
         5    9          1003.084322  7.60070091E-03  6.89040788E-04
         6    7      --------------- below threshold  5.40381531E-02
         6    8      --------------- below threshold  3.19400780E-05
         6   11           324.523142  2.54349880E-04  5.99142556E-05
         7   12           323.788968  2.54312707E-04  6.00092796E-05
         8    9      ---------------  1.99694578E-05 below threshold
         8   10           324.226242  2.53248029E-04  5.96964554E-05
        10   11      --------------- below threshold  3.89161587E-04
        13   15            43.199175  2.07574842E-03  3.65443359E-03
        13   16            43.199124  6.30923061E-03  1.11076291E-02
        13   17            28.035605  1.19464550E-05  1.66005078E-05
        14   15            43.199124  6.30923061E-03  1.11076291E-02
        14   16            43.199175  2.07574842E-03  3.65443359E-03
        14   18            28.035605  1.19464550E-05  1.66005078E-05
        15   17            93.367030  3.15389024E-04  4.75486886E-03
        15   18            93.292845  1.04927368E-04  1.56440952E-03
        16   17            93.292845  1.04927368E-04  1.56440952E-03
        16   18            93.367030  3.15389024E-04  4.75486886E-03
        19   21      --------------- below threshold  6.46093893E-04
        19   24      --------------- below threshold  2.90099001E-04
        19   25            99.829086  2.67052762E-04  1.56249556E-01
        19   27            40.780494  7.20382392E-04  1.21646132E-03
        19   28            54.051769  2.57281187E-05  5.59937089E-05
        19   29            54.070378  2.15973987E-04  4.70228102E-04
        19   30            40.788792  7.05944093E-03  1.19224740E-02
        20   22      --------------- below threshold  6.46093893E-04
        20   23      --------------- below threshold  2.90099002E-04
        20   26            99.829086  2.67052762E-04  1.56249556E-01
        20   27            54.051769  2.57281187E-05  5.59937088E-05
        20   28            40.780494  7.20382393E-04  1.21646133E-03
        20   29            40.788792  7.05944093E-03  1.19224740E-02
        20   30            54.070378  2.15973987E-04  4.70228102E-04
        21   23            99.851354  2.57812392E-04  1.73440151E-01
        21   26      --------------- below threshold  2.88165346E-04
        21   27            54.098673  2.39998084E-05  5.22856531E-05
        21   28            40.838867  7.17888401E-03  1.21344601E-02
        21   29            40.847394  7.35044849E-04  1.24262463E-03
        22   24            99.851354  2.57812392E-04  1.73440151E-01
        22   25      --------------- below threshold  2.88165345E-04
        22   27            40.838867  7.17888401E-03  1.21344601E-02
        22   28            54.098673  2.39998084E-05  5.22856531E-05
        22   30            40.847394  7.35044848E-04  1.24262463E-03
        23   25      --------------- below threshold  5.24460449E-04
        23   27            43.756676  1.68403720E-05  2.99419929E-05
        23   28            56.066270  1.07489886E-02  2.44663692E-02
        23   29            56.061218  1.44259153E-03  3.28318506E-03
        24   26      --------------- below threshold  5.24460448E-04
        24   27            56.066270  1.07489886E-02  2.44663692E-02
        24   28            43.756676  1.68403720E-05  2.99419929E-05
        24   30            56.061218  1.44259153E-03  3.28318505E-03
        25   27            56.106672  1.42107843E-03  3.23757274E-03
        25   28            43.862465  1.59969870E-05  2.84960625E-05
        25   29            43.765278  1.35997518E-04  2.41839050E-04
        25   30            56.101628  1.05567565E-02  2.40481733E-02
        26   27            43.862465  1.59969870E-05  2.84960625E-05
        26   28            56.106672  1.42107843E-03  3.23757275E-03
        26   29            56.101628  1.05567565E-02  2.40481733E-02
        26   30            43.765278  1.35997518E-04  2.41839050E-04
        27   29      --------------- below threshold  2.17516896E-03
        28   30      --------------- below threshold  2.17516896E-03
     ---------------------------------------------------------------
 
 Number of problematic transitions =                     66
 
--
 
 Electric-dipole - electric-octupole not included
++ I/O STATISTICS
 
  I. General I/O information
  - - - - - - - - - - - - - - - - - - - - - - - - - - - - - - - - - - - - - - - - - - -
  Unit  Name          Flsize      Write/Read            MBytes           Write/Read
                      (MBytes)       Calls              In/Out           Time, sec.
  - - - - - - - - - - - - - - - - - - - - - - - - - - - - - - - - - - - - - - - - - - -
   1  ANNI              0.00 .       0/       0 .      0.0/      0.0 .       0/       0
   2  RUNFILE           0.29 .     322/   28122 .      2.3/    203.5 .       0/       0
   3  ONEINT            1.46 .       0/    3720 .      0.0/   3363.8 .       0/       1
   4  JOB001            1.22 .       0/      67 .      0.0/      1.1 .       0/       0
   5  JOB002            1.22 .       0/      67 .      0.0/      1.1 .       0/       0
   6  JOB003            1.22 .       0/      67 .      0.0/      1.1 .       0/       0
   7  JOB004            1.22 .       0/      67 .      0.0/      1.1 .       0/       0
  - - - - - - - - - - - - - - - - - - - - - - - - - - - - - - - - - - - - - - - - - - -
   *  TOTAL             6.63 .     322/   32110 .      2.3/   3571.8 .       0/       1
  - - - - - - - - - - - - - - - - - - - - - - - - - - - - - - - - - - - - - - - - - - -
 
  II. I/O Access Patterns
  - - - - - - - - - - - - - - - - - - - -
  Unit  Name               % of random
                         Write/Read calls
  - - - - - - - - - - - - - - - - - - - -
   1  ANNI                 0.0/   0.0
   2  RUNFILE             28.6/  11.0
   3  ONEINT               0.0/  97.5
   4  JOB001               0.0/  68.7
   5  JOB002               0.0/  68.7
   6  JOB003               0.0/  68.7
   7  JOB004               0.0/  68.7
  - - - - - - - - - - - - - - - - - - - -
--
--- Stop Module: rassi at Fri Mar 22 12:48:28 2024 /rc=_RC_ALL_IS_WELL_ ---
--- Module rassi spent 5 seconds ---

.##################.
.# Happy landing! #.
.##################.

    Timing: Wall=30.12 User=24.92 System=4.78
