   This run of MOLCAS is using the pymolcas driver

                             OPE
                             OPE          NMOL  CASOP  ENMOLC A   SO
                 OPE        NMOLC        AS  OP EN  MO LC     AS  OP
                OPENM       OL CA        SO  PE NM  OL CA     SOP EN
                OP EN      MO   LC       AS  OP ENMOL  CASO   PENMOL
                OP  EN     MO   LC       AS  OP EN     MO     LC ASO
               OP   E  NMOL  C  AS       OP  EN MO     LC     AS  OP
               OP  E   NMO   LC AS        OPEN  MO     LCASOP EN   M
               O  PEN   MO  LCA  SO
            OPE   NMO   L   CAS    OP
        OPENMOL  CASOP     ENMOL   CASOPE
     OPENMOLCA   SOPENMOLCASOPEN   MOLCASOPE
    OPENMOLCAS   OP           EN   MOL    CAS
    OPENMOLCAS       OP  ENM        O     LCA
    OPENMOLCAS    OPEN  MOLCASO     P  E  NMO
    OPENMOLCAS     OP               E  N  MOL
    OPENMOLCA   SO           PENM   O  L  CAS    OPEN    MO    LCAS
    OPENMOLCA   SOP           ENM   O  L  CAS   OP  EN  MOLC  AS   O
    OPENMOLCA   SOPE           NM      O  LCA   S      OP  EN MO
    OPENMOLC                AS         O  PEN   M      OL  CA  SOPE
    OPENMO        LCASOPE  NMOL        C  ASO   P      ENMOLC     AS
    OPE     NMO      LCA  SO     P     E   NM   OL  CA SO  PE N   MO
          OPENMOLCA            SOPE   NMO        LCAS  O    P  ENMO
     OPENMOLCASOPENMOLCASOPENMOLCASOPENMOLCA
        OPENMOLCASOPENMOLCASOPENMOLCASOPE
            OPENMOLCASOPENMOLCASOPENM
               OPENMOLCASOPENMOLCA        version: v23.10
                   OPENMOLCASO
                       OPE                tag:

 OpenMolcas is free software; you can redistribute it and/or modify it
 under the terms of the GNU Lesser General Public License version 2.1.
 OpenMolcas is distributed in the hope that it will be useful, but it
 is provided "as is" and without any express or implied warranties.
 For more details see the full text of the license in the file
 LICENSE or in <http://www.gnu.org/licenses/>.

                 Copyright (C) The OpenMolcas Authors
           For the author list and the recommended citation,
                   consult the file CONTRIBUTORS.md

           *************************************************
           * pymolcas version py2.25                       *
           *   build 2b27fa14244bdc32cb1957e6230cd793      *
           *   (after the EMIL interpreter by V. Veryazov) *
           *************************************************

configuration info
------------------
Host name: manganese.itc.univie.ac.at (Linux)
C Compiler ID: Clang
C flags: -std=gnu99
Fortran Compiler ID: Intel
Fortran flags: -fpp -i8 -heap-arrays
Definitions: _MOLCAS_;_I8_;_LINUX_
Parallel: OFF (GA=OFF)


   ---------------------------------------------------------------------------
  |
  |           Project: MOLCAS
  |    Submitted from: /public/manganese/scratch/tmp/sascha.925337/WORK/master
  |      Scratch area: /public/manganese/scratch/tmp/sascha.925337/WORK/master
  |   Save outputs to: WORKDIR
  |            Molcas: /usr/license/openmolcas/v23.10
  |
  | Scratch area is NOT empty
  |
  |        MOLCASMEM = 10000
  |    MOLCAS_DRIVER = /usr/license/openmolcas/v23.10/pymolcas
  |    MOLCAS_NPROCS = 1
  |    MOLCAS_SOURCE = /usr/license/openmolcas/v23.10
  | MOLCAS_STRUCTURE = 0
  |
   ---------------------------------------------------------------------------

++ ---------   Input file   ---------

&GATEWAY
COORD=MOLCAS.xyz
GROUP=NOSYM
BASIS=cc-pvdz
AMFI
angmom
0 0 0
BASLIB
/user/sascha/development/eci/sharc_main/examples/SHARC_MOLCAS/basisset

RICD
CDTHreshold=0.0001

&SEWARD

>>> COPY /public/manganese/scratch/tmp/sascha.925337/SAVE/MOLCAS.1.JobIph.0 JOBOLD

&RASSCF
SPIN=1
NACTEL=8 0 0
INACTIVE=5
RAS2=6
ITERATIONS=200,100
CIROOT=6 6 1
THRS=0.000000010000 0.000100000000 0.000100000000
JOBIPH

>>> COPY MOLCAS.rasscf.molden MOLCAS.1.molden

&CASPT2
SHIFT=0.0
IMAGINARY= 0.000
IPEASHIFT= 0.25
MAXITER=120
XMULTISTATE= 3 1 2 3
OUTPUT=BRIEF
PRWF=0.1

>>> COPY MOLCAS.JobMix MOLCAS.1.JobIph

>>> COPY /public/manganese/scratch/tmp/sascha.925337/SAVE/MOLCAS.2.JobIph.0 JOBOLD

&RASSCF
SPIN=2
NACTEL=7 0 0
INACTIVE=5
RAS2=6
ITERATIONS=200,100
CIROOT=4 4 1
THRS=0.000000010000 0.000100000000 0.000100000000
JOBIPH

>>> COPY MOLCAS.rasscf.molden MOLCAS.2.molden

&CASPT2
SHIFT=0.0
IMAGINARY= 0.000
IPEASHIFT= 0.25
MAXITER=120
XMULTISTATE= 3 1 2 3
OUTPUT=BRIEF
PRWF=0.1

>>> COPY MOLCAS.JobMix MOLCAS.2.JobIph

>>> COPY /public/manganese/scratch/tmp/sascha.925337/SAVE/MOLCAS.3.JobIph.0 JOBOLD

&RASSCF
SPIN=3
NACTEL=8 0 0
INACTIVE=5
RAS2=6
ITERATIONS=200,100
CIROOT=4 4 1
THRS=0.000000010000 0.000100000000 0.000100000000
JOBIPH

>>> COPY MOLCAS.rasscf.molden MOLCAS.3.molden

&CASPT2
SHIFT=0.0
IMAGINARY= 0.000
IPEASHIFT= 0.25
MAXITER=120
XMULTISTATE= 3 1 2 3
OUTPUT=BRIEF
PRWF=0.1

>>> COPY MOLCAS.JobMix MOLCAS.3.JobIph

>>> COPY /public/manganese/scratch/tmp/sascha.925337/SAVE/MOLCAS.4.JobIph.0 JOBOLD

&RASSCF
SPIN=4
NACTEL=7 0 0
INACTIVE=5
RAS2=6
ITERATIONS=200,100
CIROOT=4 4 1
THRS=0.000000010000 0.000100000000 0.000100000000
JOBIPH

>>> COPY MOLCAS.rasscf.molden MOLCAS.4.molden

&CASPT2
SHIFT=0.0
IMAGINARY= 0.000
IPEASHIFT= 0.25
MAXITER=120
XMULTISTATE= 3 1 2 3
OUTPUT=BRIEF
PRWF=0.1

>>> COPY MOLCAS.JobMix MOLCAS.4.JobIph

>>> COPY /public/manganese/scratch/tmp/sascha.925337/SAVE/MOLCAS.1.JobIph.0 JOB001

>>> COPY MOLCAS.1.JobIph JOB002

&RASSI
NROFJOBIPHS
2 3 3
1 2 3
1 2 3
MEIN
EJOB
OVERLAPS

>>> COPY MOLCAS.rassi.h5 MOLCAS.rassi.ovlp.1.h5

>>> COPY MOLCAS.1.JobIph JOB001

&RASSI
NROFJOBIPHS
1 3
1 2 3
MEIN
EJOB

>>> COPY MOLCAS.rassi.h5 MOLCAS.rassi.1.h5

>>> COPY /public/manganese/scratch/tmp/sascha.925337/SAVE/MOLCAS.2.JobIph.0 JOB001

>>> COPY MOLCAS.2.JobIph JOB002

&RASSI
NROFJOBIPHS
2 3 3
1 2 3
1 2 3
MEIN
EJOB
OVERLAPS

>>> COPY MOLCAS.rassi.h5 MOLCAS.rassi.ovlp.2.h5

>>> COPY MOLCAS.2.JobIph JOB001

&RASSI
NROFJOBIPHS
1 3
1 2 3
MEIN
EJOB

>>> COPY MOLCAS.rassi.h5 MOLCAS.rassi.2.h5

>>> COPY /public/manganese/scratch/tmp/sascha.925337/SAVE/MOLCAS.3.JobIph.0 JOB001

>>> COPY MOLCAS.3.JobIph JOB002

&RASSI
NROFJOBIPHS
2 3 3
1 2 3
1 2 3
MEIN
EJOB
OVERLAPS

>>> COPY MOLCAS.rassi.h5 MOLCAS.rassi.ovlp.3.h5

>>> COPY MOLCAS.3.JobIph JOB001

&RASSI
NROFJOBIPHS
1 3
1 2 3
MEIN
EJOB

>>> COPY MOLCAS.rassi.h5 MOLCAS.rassi.3.h5

>>> COPY /public/manganese/scratch/tmp/sascha.925337/SAVE/MOLCAS.4.JobIph.0 JOB001

>>> COPY MOLCAS.4.JobIph JOB002

&RASSI
NROFJOBIPHS
2 3 3
1 2 3
1 2 3
MEIN
EJOB
OVERLAPS

>>> COPY MOLCAS.rassi.h5 MOLCAS.rassi.ovlp.4.h5

>>> COPY MOLCAS.4.JobIph JOB001

&RASSI
NROFJOBIPHS
1 3
1 2 3
MEIN
EJOB

>>> COPY MOLCAS.rassi.h5 MOLCAS.rassi.4.h5

>>> COPY MOLCAS.1.JobIph JOB001

>>> COPY MOLCAS.2.JobIph JOB002

>>> COPY MOLCAS.3.JobIph JOB003

>>> COPY MOLCAS.4.JobIph JOB004

&RASSI
NROFJOBIPHS
4 3 3 3 3
1 2 3
1 2 3
1 2 3
1 2 3
MEIN
EJOB
SPINORBIT
SOCOUPLING=0.0d0
EJOB

-- ----------------------------------

--- Start Module: gateway at Fri Mar 22 12:50:31 2024 ---
 
()()()()()()()()()()()()()()()()()()()()()()()()()()()()()()()()()()()()()()()()()()()()()()()()()()

                                              &GATEWAY

                                   only a single process is used
                       available to each process: 10 GB of memory, 1 thread?
                                            pid: 1887011
()()()()()()()()()()()()()()()()()()()()()()()()()()()()()()()()()()()()()()()()()()()()()()()()()()
 
 
 
 Basis Set     1 Label: S.CC-PVDZ
 Basis set is read from library:/user/sascha/development/eci/sharc_main/examples/SHARC_MOLCAS/basisset 
 
 
 Basis Set     2 Label: H.CC-PVDZ
 Basis set is read from library:/user/sascha/development/eci/sharc_main/examples/SHARC_MOLCAS/basisset 
 
++    Symmetry information:
      ---------------------
 
                    Character Table for C1 
 
                             E  
                    a        1  x, y, xy, Rz, z, xz, Ry, yz, Rx, I
--
 
 
++    Basis set information:
      ----------------------
 
 
      Basis set label: S.CC-PVDZ.........
 
      Electronic valence basis set:
      ------------------
      Associated Effective Charge  16.000000 au
      Associated Actual Charge     16.000000 au
      Nuclear Model: Point charge
 
      Shell  nPrim  nBasis  Cartesian Spherical Contaminant
         s      12       4        X                  
         p       8       3        X                  
         d       1       1                 X         
 
 
      Basis set label: H.CC-PVDZ.........
 
      Electronic valence basis set:
      ------------------
      Associated Effective Charge   1.000000 au
      Associated Actual Charge      1.000000 au
      Nuclear Model: Point charge
 
      Shell  nPrim  nBasis  Cartesian Spherical Contaminant
         s       4       2        X                  
         p       1       1        X                  
--
 
 
++    Molecular structure info:
      -------------------------
 
                    ************************************************ 
                    **** Cartesian Coordinates / Bohr, Angstrom **** 
                    ************************************************ 
 
     Center  Label                x              y              z                     x              y              z
        1      S1               0.000000       0.000000       0.001589              0.000000       0.000000       0.000841
        2      H2               0.000000       1.842103       2.235421              0.000000       0.974799       1.182934
        3      H3               0.000000      -1.842103       2.235421              0.000000      -0.974799       1.182934
 
                    *************************************** 
                    *    InterNuclear Distances / Bohr    * 
                    *************************************** 
 
               1 S1            2 H2            3 H3    
    1 S1       0.000000
    2 H2       2.895401        0.000000
    3 H3       2.895401        3.684206        0.000000
 
                    ******************************************* 
                    *    InterNuclear Distances / Angstrom    * 
                    ******************************************* 
 
               1 S1            2 H2            3 H3    
    1 S1       0.000000
    2 H2       1.532180        0.000000
    3 H3       1.532180        1.949598        0.000000
 
                    ************************************** 
                    *    Valence Bond Angles / Degree    * 
                    ************************************** 
                          Atom centers                 Phi
                      2 H2       1 S1       3 H3        79.02
--
 
 
            Nuclear Potential Energy             11.32343694 au
 
--- Stop Module: gateway at Fri Mar 22 12:50:31 2024 /rc=_RC_ALL_IS_WELL_ ---

--- Start Module: seward at Fri Mar 22 12:50:31 2024 ---
 
()()()()()()()()()()()()()()()()()()()()()()()()()()()()()()()()()()()()()()()()()()()()()()()()()()

                                              &SEWARD

                                   only a single process is used
                       available to each process: 10 GB of memory, 1 thread?
                                            pid: 1887024
()()()()()()()()()()()()()()()()()()()()()()()()()()()()()()()()()()()()()()()()()()()()()()()()()()
 
               SEWARD will generate:
                  Multipole Moment integrals up to order  2
                  Kinetic Energy integrals
                  Nuclear Attraction integrals (point charge)
                  One-Electron Hamiltonian integrals
                  Velocity integrals
                  Orbital angular momentum around ( 0.0000  0.0000  0.0000 )
                  Velocity quadrupole around ( 0.0000  0.0000  0.1341 )
                  Atomic mean-field integrals
                  RI decomposed two-electron repulsion integrals stored Cholesky style
                   - acCD auxiliary basis
                   - CD Threshold:   0.10E-03
 
                   Integrals are discarded if absolute value <: 0.10E-13
                   Integral cutoff threshold is set to       <: 0.10E-15
 
            Nuclear Potential Energy             11.32343694 au
 
 
      Basis set specifications :
      Symmetry species         a  
      Basis functions           28
 
 
      Input file to MOLDEN was generated!
 
--- Stop Module: seward at Fri Mar 22 12:50:32 2024 /rc=_RC_ALL_IS_WELL_ ---

>>> COPY /public/manganese/scratch/tmp/sascha.925337/SAVE/MOLCAS.1.JobIph.0 JOBOLD

*** symbolic link created: INPORB -> MOLCAS.GssOrb
--- Start Module: rasscf at Fri Mar 22 12:50:32 2024 ---
 
()()()()()()()()()()()()()()()()()()()()()()()()()()()()()()()()()()()()()()()()()()()()()()()()()()

                                              &RASSCF

                                   only a single process is used
                       available to each process: 10 GB of memory, 1 thread?
                                            pid: 1887036
()()()()()()()()()()()()()()()()()()()()()()()()()()()()()()()()()()()()()()()()()()()()()()()()()()
 
 
      Header of the ONEINT file:
      --------------------------
      
      Integrals generated by Gateway/Seward, Fri Mar 22 12:50:31 2024
 
 
      OrdInt status: non-squared
 
 
      Cartesian coordinates in Angstrom:
      -----------------------------------------------------
      No.  Label        X            Y            Z        
      -----------------------------------------------------
       1   S1         0.00000000   0.00000000   0.00084100
       2   H2         0.00000000   0.97479900   1.18293400
       3   H3         0.00000000  -0.97479900   1.18293400
      -----------------------------------------------------
      Nuclear repulsion energy =   11.32343694
 
++    Wave function specifications:
      -----------------------------
 
      Number of closed shell electrons          10
      Number of electrons in active shells       8
      Max number of holes in RAS1 space          0
      Max nr of electrons in RAS3 space          0
      Number of inactive orbitals                5
      Number of active orbitals                  6
      Number of secondary orbitals              17
      Spin quantum number                      0.0
      State symmetry                             1
--
 
++    Orbital specifications:
      -----------------------
 
      Symmetry species                           1
                                                 a
      Frozen orbitals                            0
      Inactive orbitals                          5
      Active orbitals                            6
      RAS1 orbitals                              0
      RAS2 orbitals                              6
      RAS3 orbitals                              0
      Secondary orbitals                        17
      Deleted orbitals                           0
      Number of basis functions                 28
--
 
++    CI expansion specifications:
      ----------------------------
 
      Number of CSFs                           105
      Number of determinants                   120
      Number of root(s) required                 6
      Root chosen for geometry opt.              6
      CI roots used                              1     2     3     4     5     6
      weights                                0.167 0.167 0.167 0.167 0.167 0.167
      highest root included in the CI            6
      max. size of the explicit Hamiltonian    105
--
 
++    Optimization specifications:
      ----------------------------
 
      RASSCF algorithm: LK RI/DF
      Maximum number of macro iterations       200
      Maximum number of SX iterations          100
      Threshold for RASSCF energy            0.100E-07
      Threshold for max MO rotation          0.100E-03
      Threshold for max BLB element          0.100E-03
      Level shift parameter                  0.500E+00
      Make Quasi-Newton update
--
 
      The MO-coefficients are taken from the file:
      JOBOLD
      Title:(No title given)                                                        
 
      Total molecular charge    0.00
 
      ************************************************************************************************************************
      *                                                                                                                      *
      *                                            Wave function control section                                             *
      *                                                                                                                      *
      ************************************************************************************************************************
 
 
                                         RASSCF iterations: Energy and convergence statistics
                                         ----------------------------------------------------
 
      Iter CI   SX   CI       RASSCF       Energy    max ROT     max BLB   max BLB  Level Ln srch  Step   QN   Walltime
          iter iter root      energy       change     param      element    value   shift minimum  type update hh:mm:ss
 Nr of preliminary CI iterations:   1
        1   1    4    0  -398.44308643    0.00E+00   0.56E-03*   9  13 1  0.71E-03*  0.00   0.00    SX    NO    0:00:00
        2   1    3    0  -398.44308895   -0.25E-05*  0.11E-03*   9  13 1  0.16E-03*  0.00   0.00    SX    NO    0:00:00
        3   1    3    0  -398.44308903   -0.78E-07* -0.26E-04    9  13 1  0.39E-04   0.00   0.00    SX    NO    0:00:00
        4   1    3    0  -398.44308903   -0.36E-08   0.69E-05    9  13 1  0.10E-04   0.00   0.00    SX    NO    0:00:00
      Convergence after  4 iterations
        5   1    3    0  -398.44308903   -0.28E-09   0.69E-05    9  12 1  0.28E-05   0.00   0.00    SX    NO    0:00:00
 
      ************************************************************************************************************************
                                                      Wave function printout:
                       occupation of active orbitals, and spin coupling of open shells (u,d: Spin up or down)
      ************************************************************************************************************************
 
      Note: transformation to natural orbitals
      has been made, which may change the order of the CSFs.
 
      printout of CI-coefficients larger than  0.05 for root  1
      energy=    -398.691538
      conf/sym  111111     Coeff  Weight
             1  222200  -0.97171 0.94422
             9  22u20d   0.08307 0.00690
            15  2u22d0   0.10924 0.01193
            31  220220   0.07716 0.00595
            34  220202   0.05745 0.00330
            38  2ud2ud   0.10920 0.01192
            49  202220   0.09391 0.00882
 
      printout of CI-coefficients larger than  0.05 for root  2
      energy=    -398.508200
      conf/sym  111111     Coeff  Weight
             2  222ud0   0.97539 0.95139
            10  22udud   0.10906 0.01189
            11  22uudd  -0.06609 0.00437
            16  2u2d20   0.08872 0.00787
            21  2u2d02   0.07661 0.00587
            26  u22dud   0.06186 0.00383
            35  220ud2  -0.06540 0.00428
            39  2udu2d  -0.07174 0.00515
 
      printout of CI-coefficients larger than  0.05 for root  3
      energy=    -398.478575
      conf/sym  111111     Coeff  Weight
             4  222u0d  -0.96184 0.92514
             8  22ud20  -0.11302 0.01277
            13  22ud02  -0.06602 0.00436
            18  2u2dud  -0.16520 0.02729
            29  u22d02  -0.05497 0.00302
            33  220u2d  -0.06937 0.00481
            41  2udud2  -0.07864 0.00618
            51  202u2d  -0.10588 0.01121
 
      printout of CI-coefficients larger than  0.05 for root  4
      energy=    -398.351924
      conf/sym  111111     Coeff  Weight
             3  222020   0.07944 0.00631
             9  22u20d  -0.74345 0.55271
            15  2u22d0   0.59730 0.35677
            25  u2220d   0.05304 0.00281
            31  220220  -0.17634 0.03110
            38  2ud2ud  -0.05383 0.00290
            43  u2d220  -0.07936 0.00630
            46  u2d202   0.05187 0.00269
            49  202220  -0.06216 0.00386
            52  202202   0.13930 0.01940
            56  ud22ud   0.06234 0.00389
 
      printout of CI-coefficients larger than  0.05 for root  5
      energy=    -398.345878
      conf/sym  111111     Coeff  Weight
             7  22u2d0   0.67353 0.45365
            17  2u220d  -0.67543 0.45621
            32  2202ud   0.13691 0.01875
            37  2ud220  -0.14811 0.02194
            40  2ud202   0.15180 0.02304
            50  2022ud  -0.10075 0.01015
            55  ud2220  -0.07399 0.00547
            76  2u022d   0.05466 0.00299
 
      printout of CI-coefficients larger than  0.05 for root  6
      energy=    -398.282419
      conf/sym  111111     Coeff  Weight
             7  22u2d0   0.69812 0.48737
            17  2u220d   0.69811 0.48736
            32  2202ud   0.05682 0.00323
            44  u2d2ud  -0.07321 0.00536
            55  ud2220  -0.07082 0.00502
            76  2u022d  -0.07051 0.00497
 
      Natural orbitals and occupation numbers for root  1
      sym 1:   1.997304   1.961193   1.964608   1.998624   0.048336   0.029935
 
      Natural orbitals and occupation numbers for root  2
      sym 1:   1.998912   1.986432   1.961516   1.000000   0.999157   0.053982
 
      Natural orbitals and occupation numbers for root  3
      sym 1:   1.998795   1.940168   1.971877   1.000000   0.096915   0.992244
 
      Natural orbitals and occupation numbers for root  4
      sym 1:   1.977020   1.582918   1.363576   1.983678   0.471470   0.621338
 
      Natural orbitals and occupation numbers for root  5
      sym 1:   1.992380   1.465189   1.450376   1.997413   0.550774   0.543868
 
      Natural orbitals and occupation numbers for root  6
      sym 1:   1.990636   1.498251   1.485250   1.998508   0.523339   0.504016
 
      ************************************************************************************************************************
      *                                                                                                                      *
      *                                                    Final results                                                     *
      *                                                                                                                      *
      ************************************************************************************************************************
 
 
++    Wave function specifications:
      -----------------------------
 
      Number of closed shell electrons          10
      Number of electrons in active shells       8
      Max number of holes in RAS1 space          0
      Max nr of electrons in RAS3 space          0
      Number of inactive orbitals                5
      Number of active orbitals                  6
      Number of secondary orbitals              17
      Spin quantum number                      0.0
      State symmetry                             1
--
 
++    Orbital specifications:
      -----------------------
 
      Symmetry species                           1
                                                 a
      Frozen orbitals                            0
      Inactive orbitals                          5
      Active orbitals                            6
      RAS1 orbitals                              0
      RAS2 orbitals                              6
      RAS3 orbitals                              0
      Secondary orbitals                        17
      Deleted orbitals                           0
      Number of basis functions                 28
--
 
++    CI expansion specifications:
      ----------------------------
 
      Number of CSFs                           105
      Number of determinants                   120
      Number of root(s) required                 6
      CI roots used                              1     2     3     4     5     6
      weights                                0.167 0.167 0.167 0.167 0.167 0.167
      highest root included in the CI            6
      Root passed to geometry opt.               6
--
 
++    Final optimization conditions:
      ------------------------------
 
      Average CI energy                            -398.44308903
      RASSCF energy for state  6                   -398.28241936
      Super-CI energy                                -0.00000000
      RASSCF energy change                           -0.00000000
      Max change in MO coefficients              -0.167E-04
      Max non-diagonal density matrix element     0.687E-05
      Maximum BLB matrix element                  0.279E-05
      (orbital pair   9,  12 in symmetry   1)
      Norm of electronic gradient            0.933E-01
--
 
 
      Final state energy(ies):
      ------------------------
 
::    RASSCF root number  1 Total energy:   -398.69153833
::    RASSCF root number  2 Total energy:   -398.50819966
::    RASSCF root number  3 Total energy:   -398.47857527
::    RASSCF root number  4 Total energy:   -398.35192376
::    RASSCF root number  5 Total energy:   -398.34587779
::    RASSCF root number  6 Total energy:   -398.28241936
 
++    Molecular orbitals:
      -------------------
 
      Pseudonatural active orbitals and approximate occupation numbers
 
 
 
 
      Molecular orbitals for symmetry species 1: a  
 
 
      Orbital                 1         2         3         4         5         6         7         8         9        10
      Energy           -92.0134   -9.0136   -6.6934   -6.6932   -6.6914   -0.9576   -0.0000   -0.0000   -0.0024    0.0000
      Occ. No.           2.0000    2.0000    2.0000    2.0000    2.0000    1.9891    1.7355    1.6993    1.6630    0.4519
 
     1 S1     1s         1.0000    0.0002    0.0000   -0.0000   -0.0000    0.0008   -0.0000    0.0011   -0.0000    0.0000
     2 S1     2s         0.0001    1.0012   -0.0024    0.0000   -0.0000    0.0061   -0.0000    0.0030   -0.0000    0.0000
     3 S1     3s         0.0003    0.0016    0.0023   -0.0000    0.0000    0.9302    0.0000   -0.3234    0.0000   -0.0000
     4 S1     *s        -0.0002   -0.0049   -0.0013    0.0000    0.0000   -0.0461    0.0000   -0.1076   -0.0000   -0.0000
     5 S1     2px       -0.0000   -0.0000   -0.0000    0.0000    0.9999   -0.0000    0.0000    0.0000   -0.0028   -0.0000
     6 S1     3px        0.0000   -0.0000   -0.0000   -0.0000   -0.0005   -0.0000    0.0000    0.0000    0.9732    0.0000
     7 S1     *px       -0.0000    0.0000    0.0000    0.0000    0.0009    0.0000   -0.0000   -0.0000    0.0249    0.0000
     8 S1     2py       -0.0000   -0.0000    0.0000    1.0000   -0.0000    0.0000   -0.0062   -0.0000    0.0000    0.0058
     9 S1     3py        0.0000   -0.0000    0.0000    0.0013   -0.0000    0.0000    0.7501    0.0000    0.0000    0.7027
    10 S1     *py       -0.0000    0.0000   -0.0000   -0.0007    0.0000   -0.0000   -0.0927   -0.0000   -0.0000    0.3131
    11 S1     2pz        0.0000    0.0030    1.0000   -0.0000    0.0000   -0.0048    0.0000   -0.0078    0.0000   -0.0000
    12 S1     3pz        0.0001    0.0017    0.0015   -0.0000   -0.0000    0.1042   -0.0000    0.7628   -0.0000   -0.0000
    13 S1     *pz       -0.0001   -0.0030   -0.0007    0.0000    0.0000   -0.0336    0.0000   -0.0698   -0.0000   -0.0000
    14 S1     *d2-      -0.0000   -0.0000    0.0000   -0.0000   -0.0000    0.0000   -0.0000    0.0000   -0.0000   -0.0000
    15 S1     *d1-       0.0000   -0.0000    0.0000    0.0004   -0.0000    0.0000    0.0644    0.0000    0.0000   -0.1018
    16 S1     *d0        0.0000    0.0001    0.0003   -0.0000    0.0000    0.0088   -0.0000    0.0292   -0.0000    0.0000
    17 S1     *d1+      -0.0000   -0.0000   -0.0000    0.0000    0.0002   -0.0000    0.0000   -0.0000    0.0171    0.0000
    18 S1     *d2+      -0.0000   -0.0001   -0.0001    0.0000   -0.0000   -0.0077    0.0000   -0.0191    0.0000   -0.0000
    19 H2     1s         0.0000   -0.0007    0.0010    0.0005    0.0000    0.2191    0.4549    0.3789   -0.0000   -0.5657
    20 H2     *s         0.0001    0.0021   -0.0003   -0.0001   -0.0000   -0.0927   -0.0874   -0.0901    0.0000   -0.3835
    21 H2     *px        0.0000    0.0000    0.0000    0.0000    0.0000   -0.0000   -0.0000   -0.0000    0.0143    0.0000
    22 H2     *py        0.0000    0.0004   -0.0000   -0.0000   -0.0000   -0.0130   -0.0075   -0.0180   -0.0000    0.0024
    23 H2     *pz        0.0000    0.0005   -0.0001   -0.0000   -0.0000   -0.0138   -0.0208   -0.0076   -0.0000   -0.0094
    24 H3     1s         0.0000   -0.0007    0.0010   -0.0005   -0.0000    0.2191   -0.4549    0.3789   -0.0000    0.5657
    25 H3     *s         0.0001    0.0021   -0.0003    0.0001    0.0000   -0.0927    0.0874   -0.0901    0.0000    0.3835
    26 H3     *px        0.0000   -0.0000   -0.0000    0.0000    0.0000   -0.0000    0.0000   -0.0000    0.0143    0.0000
    27 H3     *py       -0.0000   -0.0004    0.0000   -0.0000   -0.0000    0.0130   -0.0075    0.0180   -0.0000    0.0024
    28 H3     *pz        0.0000    0.0005   -0.0001    0.0000    0.0000   -0.0138    0.0208   -0.0076    0.0000    0.0094
 
 
      Orbital                11
      Energy             0.0099
      Occ. No.           0.4613
 
     1 S1     1s         0.0062
     2 S1     2s         0.0324
     3 S1     3s        -0.3069
     4 S1     *s        -0.6163
     5 S1     2px       -0.0000
     6 S1     3px       -0.0000
     7 S1     *px        0.0000
     8 S1     2py       -0.0000
     9 S1     3py       -0.0000
    10 S1     *py       -0.0000
    11 S1     2pz       -0.0107
    12 S1     3pz       -0.6760
    13 S1     *pz       -0.3466
    14 S1     *d2-      -0.0000
    15 S1     *d1-       0.0000
    16 S1     *d0        0.0229
    17 S1     *d1+       0.0000
    18 S1     *d2+      -0.0180
    19 H2     1s         0.4166
    20 H2     *s         0.5390
    21 H2     *px       -0.0000
    22 H2     *py        0.0064
    23 H2     *pz        0.0125
    24 H3     1s         0.4166
    25 H3     *s         0.5390
    26 H3     *px        0.0000
    27 H3     *py       -0.0064
    28 H3     *pz        0.0125
--
 
      Von Neumann Entropy (Root   1) =  0.27649
 

      Mulliken population analysis for root number:  1
      -----------------------------------------------
 
 
++    Molecular charges:
      ------------------
 
      Mulliken charges per centre and basis function type
      ---------------------------------------------------
 
                S1      H2      H3    
      1s       2.0000  1.1055  1.1055
      2s       2.0025  0.0000  0.0000
      2px      1.9998  0.0000  0.0000
      2pz      2.0001  0.0000  0.0000
      2py      2.0001  0.0000  0.0000
      3s       1.9412  0.0000  0.0000
      3px      1.9441  0.0000  0.0000
      3pz      1.3253  0.0000  0.0000
      3py      1.2057  0.0000  0.0000
      *s      -0.0665 -0.1819 -0.1819
      *px      0.0449  0.0045  0.0045
      *pz     -0.1614  0.0111  0.0111
      *py     -0.1816  0.0083  0.0083
      *d2+     0.0040  0.0000  0.0000
      *d1+     0.0007  0.0000  0.0000
      *d0      0.0072  0.0000  0.0000
      *d1-     0.0389  0.0000  0.0000
      *d2-     0.0000  0.0000  0.0000
      Total   16.1051  0.9475  0.9475
 
      N-E     -0.1051  0.0525  0.0525
 
      Total electronic charge=   18.000000
 
      Total            charge=   -0.000000
--
 
 

      Expectation values of various properties for root number:  1
      -----------------------------------------------------------
 
 
++    Molecular properties:
      ---------------------
 
      Charge (e):
                      =   -0.0000
      Dipole Moment (Debye):
      Origin of the operator (Ang)=    0.0000    0.0000    0.0000
                   X= -9.0746E-06               Y= -1.4751E-08               Z=  9.1922E-01           Total=  9.1922E-01
      Quadrupole Moment (Debye*Ang):
      Origin of the operator (Ang)=    0.0000    0.0000    0.0709
                  XX= -1.6707E+01              XY=  1.2518E-05              XZ= -3.0079E-06              YY= -1.3273E+01
                  YZ=  2.2613E-07              ZZ= -1.3041E+01
      In traceless form (Debye*Ang)
                  XX= -3.5495E+00              XY=  1.8776E-05              XZ= -4.5119E-06              YY=  1.6005E+00
                  YZ=  3.3919E-07              ZZ=  1.9490E+00
--
 
      Von Neumann Entropy (Root   2) =  1.17888
 

      Mulliken population analysis for root number:  2
      -----------------------------------------------
 
 
++    Molecular charges:
      ------------------
 
      Mulliken charges per centre and basis function type
      ---------------------------------------------------
 
                S1      H2      H3    
      1s       2.0000  1.1602  1.1602
      2s       2.0025  0.0000  0.0000
      2px      1.9998  0.0000  0.0000
      2pz      2.0001  0.0000  0.0000
      2py      2.0001  0.0000  0.0000
      3s       1.9513  0.0000  0.0000
      3px      0.9727  0.0000  0.0000
      3pz      1.4150  0.0000  0.0000
      3py      1.7236  0.0000  0.0000
      *s      -0.0492 -0.1498 -0.1498
      *px      0.0225  0.0023  0.0023
      *pz     -0.1321  0.0144  0.0144
      *py     -0.0557  0.0088  0.0088
      *d2+     0.0036  0.0000  0.0000
      *d1+     0.0004  0.0000  0.0000
      *d0      0.0066  0.0000  0.0000
      *d1-     0.0669  0.0000  0.0000
      *d2-     0.0000  0.0000  0.0000
      Total   15.9281  1.0359  1.0359
 
      N-E      0.0719 -0.0359 -0.0359
 
      Total electronic charge=   18.000000
 
      Total            charge=   -0.000000
--
 
 

      Expectation values of various properties for root number:  2
      -----------------------------------------------------------
 
 
++    Molecular properties:
      ---------------------
 
      Charge (e):
                      =   -0.0000
      Dipole Moment (Debye):
      Origin of the operator (Ang)=    0.0000    0.0000    0.0000
                   X=  6.9747E-06               Y= -2.4558E-06               Z= -1.9427E-02           Total=  1.9427E-02
      Quadrupole Moment (Debye*Ang):
      Origin of the operator (Ang)=    0.0000    0.0000    0.0709
                  XX= -1.4008E+01              XY=  8.2111E-06              XZ= -5.4458E-07              YY= -1.6871E+01
                  YZ= -5.7442E-06              ZZ= -1.6417E+01
      In traceless form (Debye*Ang)
                  XX=  2.6359E+00              XY=  1.2317E-05              XZ= -8.1687E-07              YY= -1.6591E+00
                  YZ= -8.6163E-06              ZZ= -9.7683E-01
--
 
      Von Neumann Entropy (Root   3) =  1.27683
 

      Mulliken population analysis for root number:  3
      -----------------------------------------------
 
 
++    Molecular charges:
      ------------------
 
      Mulliken charges per centre and basis function type
      ---------------------------------------------------
 
                S1      H2      H3    
      1s       2.0000  1.1049  1.1049
      2s       2.0024  0.0000  0.0000
      2px      1.9998  0.0000  0.0000
      2pz      2.0001  0.0000  0.0000
      2py      2.0001  0.0000  0.0000
      3s       1.9770  0.0000  0.0000
      3px      0.9727  0.0000  0.0000
      3pz      1.6999  0.0000  0.0000
      3py      1.3751  0.0000  0.0000
      *s      -0.0752 -0.0416 -0.0416
      *px      0.0225  0.0023  0.0023
      *pz     -0.0706  0.0157  0.0157
      *py     -0.1347  0.0109  0.0109
      *d2+     0.0054  0.0000  0.0000
      *d1+     0.0004  0.0000  0.0000
      *d0      0.0091  0.0000  0.0000
      *d1-     0.0316  0.0000  0.0000
      *d2-     0.0000  0.0000  0.0000
      Total   15.8158  1.0921  1.0921
 
      N-E      0.1842 -0.0921 -0.0921
 
      Total electronic charge=   18.000000
 
      Total            charge=   -0.000000
--
 
 

      Expectation values of various properties for root number:  3
      -----------------------------------------------------------
 
 
++    Molecular properties:
      ---------------------
 
      Charge (e):
                      =   -0.0000
      Dipole Moment (Debye):
      Origin of the operator (Ang)=    0.0000    0.0000    0.0000
                   X=  6.2790E-06               Y=  9.4970E-08               Z= -1.1945E+00           Total=  1.1945E+00
      Quadrupole Moment (Debye*Ang):
      Origin of the operator (Ang)=    0.0000    0.0000    0.0709
                  XX= -1.4459E+01              XY=  6.6167E-06              XZ= -2.4342E-06              YY= -1.6936E+01
                  YZ=  2.0237E-06              ZZ= -1.8846E+01
      In traceless form (Debye*Ang)
                  XX=  3.4315E+00              XY=  9.9250E-06              XZ= -3.6513E-06              YY= -2.8333E-01
                  YZ=  3.0355E-06              ZZ= -3.1481E+00
--
 
      Von Neumann Entropy (Root   4) =  1.68742
 

      Mulliken population analysis for root number:  4
      -----------------------------------------------
 
 
++    Molecular charges:
      ------------------
 
      Mulliken charges per centre and basis function type
      ---------------------------------------------------
 
                S1      H2      H3    
      1s       2.0000  1.0040  1.0040
      2s       2.0024  0.0000  0.0000
      2px      1.9998  0.0000  0.0000
      2pz      2.0001  0.0000  0.0000
      2py      2.0001  0.0000  0.0000
      3s       1.8808  0.0000  0.0000
      3px      1.9296  0.0000  0.0000
      3pz      1.1374  0.0000  0.0000
      3py      1.2049  0.0000  0.0000
      *s      -0.0875 -0.0327 -0.0327
      *px      0.0445  0.0045  0.0045
      *pz     -0.0730  0.0133  0.0133
      *py     -0.0893  0.0084  0.0084
      *d2+     0.0040  0.0000  0.0000
      *d1+     0.0007  0.0000  0.0000
      *d0      0.0068  0.0000  0.0000
      *d1-     0.0437  0.0000  0.0000
      *d2-     0.0000  0.0000  0.0000
      Total   16.0051  0.9974  0.9974
 
      N-E     -0.0051  0.0026  0.0026
 
      Total electronic charge=   18.000000
 
      Total            charge=   -0.000000
--
 
 

      Expectation values of various properties for root number:  4
      -----------------------------------------------------------
 
 
++    Molecular properties:
      ---------------------
 
      Charge (e):
                      =   -0.0000
      Dipole Moment (Debye):
      Origin of the operator (Ang)=    0.0000    0.0000    0.0000
                   X= -1.2437E-05               Y= -1.4847E-05               Z= -3.7520E-01           Total=  3.7520E-01
      Quadrupole Moment (Debye*Ang):
      Origin of the operator (Ang)=    0.0000    0.0000    0.0709
                  XX= -1.7069E+01              XY=  1.1256E-05              XZ= -4.5791E-06              YY= -1.5655E+01
                  YZ= -4.0342E-05              ZZ= -1.5962E+01
      In traceless form (Debye*Ang)
                  XX= -1.2610E+00              XY=  1.6884E-05              XZ= -6.8687E-06              YY=  8.6085E-01
                  YZ= -6.0513E-05              ZZ=  4.0019E-01
--
 
      Von Neumann Entropy (Root   5) =  1.69562
 

      Mulliken population analysis for root number:  5
      -----------------------------------------------
 
 
++    Molecular charges:
      ------------------
 
      Mulliken charges per centre and basis function type
      ---------------------------------------------------
 
                S1      H2      H3    
      1s       2.0000  0.9909  0.9909
      2s       2.0024  0.0000  0.0000
      2px      1.9998  0.0000  0.0000
      2pz      2.0001  0.0000  0.0000
      2py      2.0001  0.0000  0.0000
      3s       1.9404  0.0000  0.0000
      3px      1.9430  0.0000  0.0000
      3pz      1.1597  0.0000  0.0000
      3py      1.1176  0.0000  0.0000
      *s      -0.0610 -0.0372 -0.0372
      *px      0.0449  0.0045  0.0045
      *pz     -0.0813  0.0126  0.0126
      *py     -0.0820  0.0083  0.0083
      *d2+     0.0039  0.0000  0.0000
      *d1+     0.0007  0.0000  0.0000
      *d0      0.0067  0.0000  0.0000
      *d1-     0.0468  0.0000  0.0000
      *d2-     0.0000  0.0000  0.0000
      Total   16.0417  0.9791  0.9791
 
      N-E     -0.0417  0.0209  0.0209
 
      Total electronic charge=   18.000000
 
      Total            charge=   -0.000000
--
 
 

      Expectation values of various properties for root number:  5
      -----------------------------------------------------------
 
 
++    Molecular properties:
      ---------------------
 
      Charge (e):
                      =   -0.0000
      Dipole Moment (Debye):
      Origin of the operator (Ang)=    0.0000    0.0000    0.0000
                   X= -1.2493E-05               Y=  1.3006E-05               Z= -8.1162E-03           Total=  8.1162E-03
      Quadrupole Moment (Debye*Ang):
      Origin of the operator (Ang)=    0.0000    0.0000    0.0709
                  XX= -1.7107E+01              XY=  1.3461E-05              XZ= -3.8729E-06              YY= -1.5351E+01
                  YZ=  3.6960E-05              ZZ= -1.5933E+01
      In traceless form (Debye*Ang)
                  XX= -1.4648E+00              XY=  2.0192E-05              XZ= -5.8094E-06              YY=  1.1692E+00
                  YZ=  5.5439E-05              ZZ=  2.9555E-01
--
 
      Von Neumann Entropy (Root   6) =  1.64602
 

      Mulliken population analysis for root number:  6
      -----------------------------------------------
 
 
++    Molecular charges:
      ------------------
 
      Mulliken charges per centre and basis function type
      ---------------------------------------------------
 
                S1      H2      H3    
      1s       2.0000  1.0072  1.0072
      2s       2.0024  0.0000  0.0000
      2px      1.9998  0.0000  0.0000
      2pz      2.0001  0.0000  0.0000
      2py      2.0001  0.0000  0.0000
      3s       1.8656  0.0000  0.0000
      3px      1.9440  0.0000  0.0000
      3pz      1.2034  0.0000  0.0000
      3py      1.1799  0.0000  0.0000
      *s      -0.1336 -0.0351 -0.0351
      *px      0.0449  0.0045  0.0045
      *pz     -0.0820  0.0124  0.0124
      *py     -0.0744  0.0083  0.0083
      *d2+     0.0040  0.0000  0.0000
      *d1+     0.0007  0.0000  0.0000
      *d0      0.0068  0.0000  0.0000
      *d1-     0.0436  0.0000  0.0000
      *d2-     0.0000  0.0000  0.0000
      Total   16.0055  0.9973  0.9973
 
      N-E     -0.0055  0.0027  0.0027
 
      Total electronic charge=   18.000000
 
      Total            charge=   -0.000000
--
 
 

      Expectation values of various properties for root number:  6
      -----------------------------------------------------------
 
 
++    Molecular properties:
      ---------------------
 
      Charge (e):
                      =   -0.0000
      Dipole Moment (Debye):
      Origin of the operator (Ang)=    0.0000    0.0000    0.0000
                   X= -1.2245E-05               Y= -2.3999E-06               Z=  3.6480E-01           Total=  3.6480E-01
      Quadrupole Moment (Debye*Ang):
      Origin of the operator (Ang)=    0.0000    0.0000    0.0709
                  XX= -1.7067E+01              XY=  1.2699E-05              XZ= -4.2303E-06              YY= -1.5251E+01
                  YZ= -6.6961E-06              ZZ= -1.5770E+01
      In traceless form (Debye*Ang)
                  XX= -1.5569E+00              XY=  1.9049E-05              XZ= -6.3454E-06              YY=  1.1678E+00
                  YZ= -1.0044E-05              ZZ=  3.8913E-01
--
 
 
      Input file to MOLDEN was generated!
 
 
      Input file to MOLDEN was generated!
 
 
      Input file to MOLDEN was generated!
 
 
      Input file to MOLDEN was generated!
 
 
      Input file to MOLDEN was generated!
 
 
      Input file to MOLDEN was generated!
 
 
      Input file to MOLDEN was generated!
 
      Average orbitals are written to the RASORB file
      Natural orbitals for root   1 are written to the RASORB.1 file
      Natural orbitals for root   2 are written to the RASORB.2 file
      Natural orbitals for root   3 are written to the RASORB.3 file
      Natural orbitals for root   4 are written to the RASORB.4 file
      Natural orbitals for root   5 are written to the RASORB.5 file
      Natural orbitals for root   6 are written to the RASORB.6 file
      Spin density orbitals for root   1 are written to the SPDORB.1 file
      Spin density orbitals for root   2 are written to the SPDORB.2 file
      Spin density orbitals for root   3 are written to the SPDORB.3 file
      Spin density orbitals for root   4 are written to the SPDORB.4 file
      Spin density orbitals for root   5 are written to the SPDORB.5 file
      Spin density orbitals for root   6 are written to the SPDORB.6 file
 
--- Stop Module: rasscf at Fri Mar 22 12:50:34 2024 /rc=_RC_ALL_IS_WELL_ ---
--- Module rasscf spent 2 seconds ---

>>> COPY MOLCAS.rasscf.molden MOLCAS.1.molden

*** symbolic link created: INPORB -> MOLCAS.RasOrb
--- Start Module: caspt2 at Fri Mar 22 12:50:34 2024 ---
 
()()()()()()()()()()()()()()()()()()()()()()()()()()()()()()()()()()()()()()()()()()()()()()()()()()

                                              &CASPT2

                                   only a single process is used
                       available to each process: 10 GB of memory, 1 thread?
                                            pid: 1887114
()()()()()()()()()()()()()()()()()()()()()()()()()()()()()()()()()()()()()()()()()()()()()()()()()()
 
 ###############################################################################
 ###############################################################################
 ###                                                                         ###
 ###                                                                         ###
 ###    WARNING: Too large iRlxRoot.                                         ###
 ###                                                                         ###
 ###                                                                         ###
 ###############################################################################
 ###############################################################################
  Reset to NSTATE=                     3
 
++    Wave function specifications:
      -----------------------------
 
      Number of closed shell electrons           0
      Number of electrons in active shells       8
      Max number of holes in RAS1 space          0
      Max number of electrons in RAS3 space      0
      Number of inactive orbitals                0
      Number of active orbitals                  6
      Number of secondary orbitals              17
      Spin quantum number                      0.0
      State symmetry                             1
      Number of CSFs                           105
      Number of CASSCF root(s) available         6
      CASPT2 state passed to geometry opt.       3
      A file JOBMIX will be created
      This is a MULTI-STATE CASSCF reference
      Number of CI roots used                    3
      These are:                                 1   2   3
      Off-diagonal elements of Heff are computed
--
 
++    Orbital specifications:
      -----------------------
 
      Symmetry species                           1
                                                 a
      Frozen orbitals                            5
      Inactive orbitals                          0
      Active orbitals                            6
      Secondary orbitals                        17
      Deleted orbitals                           0
      Number of basis functions                 28
--
 
++    CASPT2 specifications:
      ----------------------
 
      Type of calculation                        XMS-CASPT2
      Fock operator                              state-average
      IPEA shift                                 0.25
      Real shift                                 0.00
      Imaginary shift                            0.00
      The input orbitals will be transformed to quasi-canonical
      The input states will be rotated to diagonalize the Fock operator
--
 
--------------------------------------------------------------------------------
 Estimated memory requirements:
  POLY3 :                   257654
  RHS:                      259460
  SIGMA :                   264688
  PRPCTL:                        0
 Available workspace:   1124990536
 
++ CASPT2 computation for group   1
 
********************************************************************************
 Multi-State initialization phase begins for group   1
--------------------------------------------------------------------------------
 
  H0 in the original model space basis:
                1               2               3
   1       -4.51696573     -0.00000011      0.00000028
   2       -0.00000011     -4.17613954     -0.00000000
   3        0.00000028     -0.00000000     -4.13096373
 
  H0 eigenvectors:
                1               2               3
   1        1.00000000     -0.00000033      0.00000072
   2        0.00000033      1.00000000     -0.00000003
   3       -0.00000072      0.00000003      1.00000000
 
********************************************************************************
 Compute H0 matrices for state    1
--------------------------------------------------------------------------------
--------------------------------------------------------------------------------
 H0 matrices have been computed.
 
********************************************************************************
  CASPT2 EQUATION SOLUTION
--------------------------------------------------------------------------------
 
  Total nr of CASPT2 parameters:
   Before reduction:        8925
   After  reduction:        8466
 
 Variance of |WF0>:       0.3241247879
 
 The contributions to the second order correlation energy in atomic units.
-----------------------------------------------------------------------------------------------------------------------------
  IT.      VJTU        VJTI        ATVX        AIVX        VJAI        BVAT        BJAT        BJAI        TOTAL       RNORM  
-----------------------------------------------------------------------------------------------------------------------------
   1     0.000000    0.000000   -0.045256    0.000000    0.000000   -0.086524    0.000000    0.000000   -0.131780    0.000444
   2     0.000000    0.000000   -0.045305    0.000000    0.000000   -0.086530    0.000000    0.000000   -0.131834    0.000013
-----------------------------------------------------------------------------------------------------------------------------
 
  FINAL CASPT2 RESULT:
 
      Reference energy:        -398.6915383267
      E2 (Non-variational):      -0.1318351084
      E2 (Variational):          -0.1318350865
      Total energy:            -398.8233734132
      Residual norm:              0.0000003918
      Reference weight:           0.94541
 
      Contributions to the CASPT2 correlation energy
      Active & Virtual Only:         -0.1318351084
      One Inactive Excited:           0.0000000000
      Two Inactive Excited:           0.0000000000
 
 
++ Denominators, etc.
--------------------------------------------------------------------------------------------------------------
 Report on small energy denominators, large coefficients, and large energy contributions.
CASE  SYMM ACTIVE-MIX  NON-ACTIVE INDICES          DENOMINATOR     RHS VALUE       COEFFICIENT     CONTRIBUTION
ATVX     1  Mu1.0020  Se1.013                       1.67710818     -0.06038088      0.03520448     -0.00212568
ATVX     1  Mu1.0013  Se1.015                       1.55199122     -0.05174362      0.03209491     -0.00166071
ATVX     1  Mu1.0026  Se1.015                       1.99272224      0.04982155     -0.02503811     -0.00124744
ATVX     1  Mu1.0015  Se1.016                       1.78868376     -0.06565779      0.03663251     -0.00240521
ATVX     1  Mu1.0011  Se1.018                       1.63062874     -0.04200877      0.02590016     -0.00108803
ATVX     1  Mu1.0013  Se1.018                       1.64023800     -0.04514790      0.02718396     -0.00122730
ATVX     1  Mu1.0026  Se1.018                       2.08096902     -0.06002257      0.02843079     -0.00170649
ATVX     1  Mu1.0006  Se1.019                       1.59658013      0.04507869     -0.02817610     -0.00127014
ATVX     1  Mu1.0008  Se1.019                       1.61201633      0.05360437     -0.03328885     -0.00178443
ATVX     1  Mu1.0024  Se1.019                       2.06098771     -0.05992786      0.02879104     -0.00172539
ATVX     1  Mu1.0037  Se1.021                       2.61272607     -0.06846811      0.02586829     -0.00177115
BVATP    1  Mu1.0005  Se1.013 Se1.012               2.08216593     -0.05276075      0.02501187     -0.00131965
BVATP    1  Mu1.0002  Se1.015 Se1.014               2.10743534     -0.05378022      0.02514030     -0.00135205
BVATP    1  Mu1.0001  Se1.015 Se1.015               1.92745877      0.07381838     -0.03797262     -0.00280308
BVATP    1  Mu1.0006  Se1.016 Se1.016               2.46895539     -0.07040513      0.02851452     -0.00200757
BVATP    1  Mu1.0001  Se1.018 Se1.018               2.10395233      0.07604278     -0.03614153     -0.00274830
BVATP    1  Mu1.0001  Se1.019 Se1.019               2.12731119      0.07684301     -0.03612213     -0.00277573
BVATP    1  Mu1.0001  Se1.020 Se1.013               1.94081813      0.05035643     -0.02632886     -0.00132583
BVATM    1  Mu1.0001  Se1.015 Se1.014               2.10743534     -0.06270820      0.02900510     -0.00181886
BVATM    1  Mu1.0001  Se1.018 Se1.013               2.11551781      0.08622171     -0.04029875     -0.00347463
BVATM    1  Mu1.0002  Se1.019 Se1.013               2.12864852      0.06469177     -0.03010748     -0.00194771
BVATM    1  Mu1.0002  Se1.019 Se1.016               2.28564955      0.07173971     -0.03132978     -0.00224759
--
 
   (Skipping property calculation,
    use PROP keyword to activate)
********************************************************************************
 Compute H0 matrices for state    2
--------------------------------------------------------------------------------
--------------------------------------------------------------------------------
 H0 matrices have been computed.
 
********************************************************************************
  CASPT2 EQUATION SOLUTION
--------------------------------------------------------------------------------
 
  Total nr of CASPT2 parameters:
   Before reduction:        8925
   After  reduction:        7820
 
 Variance of |WF0>:       0.3231109772
 
 The contributions to the second order correlation energy in atomic units.
-----------------------------------------------------------------------------------------------------------------------------
  IT.      VJTU        VJTI        ATVX        AIVX        VJAI        BVAT        BJAT        BJAI        TOTAL       RNORM  
-----------------------------------------------------------------------------------------------------------------------------
   1     0.000000    0.000000   -0.052328    0.000000    0.000000   -0.079349    0.000000    0.000000   -0.131676    0.000623
   2     0.000000    0.000000   -0.052390    0.000000    0.000000   -0.079363    0.000000    0.000000   -0.131754    0.000024
-----------------------------------------------------------------------------------------------------------------------------
 
  FINAL CASPT2 RESULT:
 
      Reference energy:        -398.5081996596
      E2 (Non-variational):      -0.1317552018
      E2 (Variational):          -0.1317551417
      Total energy:            -398.6399548013
      Residual norm:              0.0000008651
      Reference weight:           0.94430
 
      Contributions to the CASPT2 correlation energy
      Active & Virtual Only:         -0.1317552018
      One Inactive Excited:           0.0000000000
      Two Inactive Excited:           0.0000000000
 
 
++ Denominators, etc.
--------------------------------------------------------------------------------------------------------------
 Report on small energy denominators, large coefficients, and large energy contributions.
CASE  SYMM ACTIVE-MIX  NON-ACTIVE INDICES          DENOMINATOR     RHS VALUE       COEFFICIENT     CONTRIBUTION
ATVX     1  Mu1.0025  Se1.013                       1.62392326      0.08228245     -0.05045518     -0.00415158
ATVX     1  Mu1.0032  Se1.016                       1.87099412     -0.06234365      0.03336611     -0.00208016
ATVX     1  Mu1.0043  Se1.019                       2.15647902      0.05449832     -0.02520109     -0.00137342
ATVX     1  Mu1.0008  Se1.020                       1.34913504     -0.03951003      0.02911352     -0.00115028
ATVX     1  Mu1.0025  Se1.020                       1.83688726      0.04845795     -0.02632605     -0.00127571
ATVX     1  Mu1.0010  Se1.021                       1.64692587     -0.04332288      0.02577341     -0.00111658
ATVX     1  Mu1.0011  Se1.021                       1.65904855     -0.06927716      0.04144722     -0.00287135
ATVX     1  Mu1.0008  Se1.022                       1.66449313     -0.06278612      0.03737485     -0.00234662
BVATP    1  Mu1.0008  Se1.016 Se1.016               2.47466812     -0.07489518      0.03023909     -0.00226476
BVATM    1  Mu1.0005  Se1.016 Se1.012               2.24480956     -0.05922718      0.02622227     -0.00155307
BVATM    1  Mu1.0004  Se1.018 Se1.013               2.24444912      0.06451615     -0.02844601     -0.00183523
--
 
   (Skipping property calculation,
    use PROP keyword to activate)
********************************************************************************
 Compute H0 matrices for state    3
--------------------------------------------------------------------------------
--------------------------------------------------------------------------------
 H0 matrices have been computed.
 
********************************************************************************
  CASPT2 EQUATION SOLUTION
--------------------------------------------------------------------------------
 
  Total nr of CASPT2 parameters:
   Before reduction:        8925
   After  reduction:        7820
 
 Variance of |WF0>:       0.3174054075
 
 The contributions to the second order correlation energy in atomic units.
-----------------------------------------------------------------------------------------------------------------------------
  IT.      VJTU        VJTI        ATVX        AIVX        VJAI        BVAT        BJAT        BJAI        TOTAL       RNORM  
-----------------------------------------------------------------------------------------------------------------------------
   1     0.000000    0.000000   -0.053767    0.000000    0.000000   -0.079211    0.000000    0.000000   -0.132978    0.000664
   2     0.000000    0.000000   -0.053831    0.000000    0.000000   -0.079233    0.000000    0.000000   -0.133064    0.000023
-----------------------------------------------------------------------------------------------------------------------------
 
  FINAL CASPT2 RESULT:
 
      Reference energy:        -398.4785752726
      E2 (Non-variational):      -0.1330651772
      E2 (Variational):          -0.1330651128
      Total energy:            -398.6116403854
      Residual norm:              0.0000008823
      Reference weight:           0.93919
 
      Contributions to the CASPT2 correlation energy
      Active & Virtual Only:         -0.1330651772
      One Inactive Excited:           0.0000000000
      Two Inactive Excited:           0.0000000000
 
 
++ Denominators, etc.
--------------------------------------------------------------------------------------------------------------
 Report on small energy denominators, large coefficients, and large energy contributions.
CASE  SYMM ACTIVE-MIX  NON-ACTIVE INDICES          DENOMINATOR     RHS VALUE       COEFFICIENT     CONTRIBUTION
ATVX     1  Mu1.0010  Se1.012                       1.03404702     -0.02761820      0.02644036     -0.00073024
ATVX     1  Mu1.0001  Se1.013                       0.47676413     -0.03119327      0.06441111     -0.00200919
ATVX     1  Mu1.0008  Se1.013                       1.08852189      0.03463450     -0.03121197     -0.00108101
ATVX     1  Mu1.0029  Se1.013                       1.63529868     -0.06121779      0.03719146     -0.00227678
ATVX     1  Mu1.0032  Se1.013                       1.70433820     -0.04889971      0.02819130     -0.00137855
ATVX     1  Mu1.0001  Se1.014                       0.55692843      0.01713589     -0.03012364     -0.00051620
ATVX     1  Mu1.0028  Se1.016                       1.78715014     -0.06327085      0.03548039     -0.00224487
ATVX     1  Mu1.0031  Se1.017                       1.86474418     -0.04851174      0.02563617     -0.00124366
ATVX     1  Mu1.0002  Se1.018                       0.96477592      0.02664727     -0.02718568     -0.00072442
ATVX     1  Mu1.0004  Se1.018                       1.04627107      0.03431688     -0.03223751     -0.00110629
ATVX     1  Mu1.0049  Se1.018                       2.17970996     -0.06085685      0.02784729     -0.00169470
ATVX     1  Mu1.0003  Se1.019                       0.97877074      0.02705890     -0.02722020     -0.00073655
ATVX     1  Mu1.0046  Se1.019                       2.14867319      0.06309434     -0.02928301     -0.00184759
ATVX     1  Mu1.0029  Se1.020                       1.84826268     -0.06834138      0.03679290     -0.00251448
ATVX     1  Mu1.0011  Se1.022                       1.68212666     -0.05388164      0.03146242     -0.00169525
BVATP    1  Mu1.0009  Se1.016 Se1.016               2.46974512     -0.07598470      0.03077894     -0.00233873
BVATM    1  Mu1.0006  Se1.016 Se1.012               2.23225920      0.06117838     -0.02710603     -0.00165830
BVATM    1  Mu1.0004  Se1.018 Se1.013               2.23680166     -0.06483748      0.02856015     -0.00185177
--
 
   (Skipping property calculation,
    use PROP keyword to activate)
--
 
  Total CASPT2 energies:
 
  State-specific CASPT2 energies obtained using
  rotated states do not have a well-defined physical
  meaning, however they can be extracted from the
  diagonal of the effective Hamiltonian.
 
++ Multi-State CASPT2 section:
********************************************************************************
  MULTI-STATE CASPT2 SECTION
--------------------------------------------------------------------------------
 
  Output diagonal energies have been shifted. Add   -398.000000000000     
 
  Effective Hamiltonian matrix (Symmetric):
 
                1               2               3
   1        -0.82337341
   2         0.00000015     -0.63995480
   3        -0.00000012      0.00000002     -0.61164039
 
       Total XMS-CASPT2 energies:
::    XMS-CASPT2 Root  1     Total energy:   -398.82337341
::    XMS-CASPT2 Root  2     Total energy:   -398.63995480
::    XMS-CASPT2 Root  3     Total energy:   -398.61164039
 
       Eigenvectors:
            1.00000000      0.00000079     -0.00000055
           -0.00000079      1.00000000      0.00000059
            0.00000055     -0.00000059      1.00000000
 
       In terms of the input states:
            1.00000000      0.00000046      0.00000016
           -0.00000046      1.00000000      0.00000056
           -0.00000016     -0.00000056      1.00000000
 
--
 
  THE ORIGINAL CI ARRAYS ARE NOW MIXED AS LINEAR
  COMBINATIONS, GIVEN BY THE EIGENVECTORS.
  A NEW JOBIPH FILE NAMED 'JOBMIX' IS PREPARED.
********************************************************************************
 
++ Mixed CI coefficients:
  The CI coefficients for the MIXED state nr.   1
--------------------------------------------------------------------------------
 CI COEFFICIENTS LARGER THAN  0.10D+00
  Occupation of active orbitals, and spin coupling
  of open shells. (u,d: Spin up or down).
  SGUGA info is (Midvert:IsyUp:UpperWalk/LowerWalk)
        Conf  SGUGA info        Occupation    Coefficient         Weight
           1  ( 1:1:   1/   1)   222200         -0.971710       0.944221
          15  ( 2:1:   1/   2)   2u22d0          0.109245       0.011934
          38  ( 3:1:   2/   2)   2ud2ud          0.109195       0.011924
 
  The CI coefficients for the MIXED state nr.   2
--------------------------------------------------------------------------------
 CI COEFFICIENTS LARGER THAN  0.10D+00
  Occupation of active orbitals, and spin coupling
  of open shells. (u,d: Spin up or down).
  SGUGA info is (Midvert:IsyUp:UpperWalk/LowerWalk)
        Conf  SGUGA info        Occupation    Coefficient         Weight
           2  ( 1:1:   2/   1)   222ud0          0.975395       0.951395
          10  ( 2:1:   4/   1)   22udud          0.109059       0.011894
 
  The CI coefficients for the MIXED state nr.   3
--------------------------------------------------------------------------------
 CI COEFFICIENTS LARGER THAN  0.10D+00
  Occupation of active orbitals, and spin coupling
  of open shells. (u,d: Spin up or down).
  SGUGA info is (Midvert:IsyUp:UpperWalk/LowerWalk)
        Conf  SGUGA info        Occupation    Coefficient         Weight
           4  ( 1:1:   4/   1)   222u0d         -0.961841       0.925139
           8  ( 2:1:   2/   1)   22ud20         -0.113021       0.012774
          18  ( 2:1:   4/   2)   2u2dud         -0.165201       0.027291
          51  ( 3:1:   3/   4)   202u2d         -0.105878       0.011210
 
--
 
--- Stop Module: caspt2 at Fri Mar 22 12:50:35 2024 /rc=_RC_ALL_IS_WELL_ ---

>>> COPY MOLCAS.JobMix MOLCAS.1.JobIph

>>> COPY /public/manganese/scratch/tmp/sascha.925337/SAVE/MOLCAS.2.JobIph.0 JOBOLD

*** symbolic link created: INPORB -> MOLCAS.RasOrb
--- Start Module: rasscf at Fri Mar 22 12:50:35 2024 ---
 
()()()()()()()()()()()()()()()()()()()()()()()()()()()()()()()()()()()()()()()()()()()()()()()()()()

                                              &RASSCF

                                   only a single process is used
                       available to each process: 10 GB of memory, 1 thread?
                                            pid: 1887117
()()()()()()()()()()()()()()()()()()()()()()()()()()()()()()()()()()()()()()()()()()()()()()()()()()
 
 
      Header of the ONEINT file:
      --------------------------
      
      Integrals generated by Gateway/Seward, Fri Mar 22 12:50:31 2024
 
 
      OrdInt status: non-squared
 
 
      Cartesian coordinates in Angstrom:
      -----------------------------------------------------
      No.  Label        X            Y            Z        
      -----------------------------------------------------
       1   S1         0.00000000   0.00000000   0.00084100
       2   H2         0.00000000   0.97479900   1.18293400
       3   H3         0.00000000  -0.97479900   1.18293400
      -----------------------------------------------------
      Nuclear repulsion energy =   11.32343694
 
++    Wave function specifications:
      -----------------------------
 
      Number of closed shell electrons          10
      Number of electrons in active shells       7
      Max number of holes in RAS1 space          0
      Max nr of electrons in RAS3 space          0
      Number of inactive orbitals                5
      Number of active orbitals                  6
      Number of secondary orbitals              17
      Spin quantum number                      0.5
      State symmetry                             1
--
 
++    Orbital specifications:
      -----------------------
 
      Symmetry species                           1
                                                 a
      Frozen orbitals                            0
      Inactive orbitals                          5
      Active orbitals                            6
      RAS1 orbitals                              0
      RAS2 orbitals                              6
      RAS3 orbitals                              0
      Secondary orbitals                        17
      Deleted orbitals                           0
      Number of basis functions                 28
--
 
++    CI expansion specifications:
      ----------------------------
 
      Number of CSFs                           210
      Number of determinants                   300
      Number of root(s) required                 4
      Root chosen for geometry opt.              4
      CI roots used                              1     2     3     4
      weights                                0.250 0.250 0.250 0.250
      highest root included in the CI            4
      max. size of the explicit Hamiltonian    200
--
 
++    Optimization specifications:
      ----------------------------
 
      RASSCF algorithm: LK RI/DF
      Maximum number of macro iterations       200
      Maximum number of SX iterations          100
      Threshold for RASSCF energy            0.100E-07
      Threshold for max MO rotation          0.100E-03
      Threshold for max BLB element          0.100E-03
      Level shift parameter                  0.500E+00
      Make Quasi-Newton update
--
 
      The MO-coefficients are taken from the file:
      JOBOLD
      Title:(No title given)                                                        
 
      Total molecular charge    1.00
 
      ************************************************************************************************************************
      *                                                                                                                      *
      *                                            Wave function control section                                             *
      *                                                                                                                      *
      ************************************************************************************************************************
 
 
                                         RASSCF iterations: Energy and convergence statistics
                                         ----------------------------------------------------
 
      Iter CI   SX   CI       RASSCF       Energy    max ROT     max BLB   max BLB  Level Ln srch  Step   QN   Walltime
          iter iter root      energy       change     param      element    value   shift minimum  type update hh:mm:ss
 Nr of preliminary CI iterations:   3
        1   1    4    0  -398.22922236    0.00E+00   0.66E-03*   7  26 1 -0.64E-03*  0.00   0.00    SX    NO    0:00:00
        2   1    3    0  -398.22922408   -0.17E-05*  0.15E-03*   7  17 1  0.84E-04   0.00   0.00    SX    NO    0:00:00
        3   1    3    0  -398.22922413   -0.50E-07* -0.38E-04    8  17 1 -0.21E-04   0.00   0.00    SX    NO    0:00:00
        4   4    3    0  -398.22922457   -0.43E-06* -0.76E-04   10  17 1 -0.18E-04   0.00   0.00    SX    NO    0:00:00
        5   1    3    0  -398.22922457   -0.59E-08   0.46E-04   10  17 1 -0.58E-05   0.00   1.34    QN   YES    0:00:00
      Convergence after  5 iterations
        6   3    3    0  -398.22922457   -0.99E-09   0.46E-04    8  17 1  0.27E-05   0.00   1.34    QN   YES    0:00:00
 
      ************************************************************************************************************************
                                                      Wave function printout:
                       occupation of active orbitals, and spin coupling of open shells (u,d: Spin up or down)
      ************************************************************************************************************************
 
      Note: transformation to natural orbitals
      has been made, which may change the order of the CSFs.
 
      printout of CI-coefficients larger than  0.05 for root  1
      energy=    -398.367701
      conf/sym  111111     Coeff  Weight
             1  222u00   0.97373 0.94814
            14  2u2du0   0.05819 0.00339
            32  220u20   0.08142 0.00663
            37  220u02   0.06079 0.00369
            42  2ududu   0.06367 0.00405
            44  2uduud   0.10404 0.01082
            56  202u20   0.10752 0.01156
 
      printout of CI-coefficients larger than  0.05 for root  2
      energy=    -398.233635
      conf/sym  111111     Coeff  Weight
             4  22u200   0.97389 0.94846
            39  2ud2u0  -0.06544 0.00428
            49  u2d20u  -0.06911 0.00478
            57  20220u  -0.07375 0.00544
            63  ud22u0  -0.08141 0.00663
           107  2u02du   0.05340 0.00285
           109  2u02ud   0.06349 0.00403
           124  20u220   0.10828 0.01172
           129  20u202   0.05132 0.00263
 
      printout of CI-coefficients larger than  0.05 for root  3
      energy=    -398.220619
      conf/sym  111111     Coeff  Weight
             2  2220u0   0.08647 0.00748
            13  2u2200   0.96107 0.92365
            31  2202u0  -0.06819 0.00465
            41  2ud20u  -0.12304 0.01514
            47  u2d2u0  -0.08530 0.00728
            55  2022u0  -0.10655 0.01135
           106  2u0220  -0.08749 0.00766
           111  2u0202  -0.06508 0.00424
           127  20u2ud  -0.08700 0.00757
 
      printout of CI-coefficients larger than  0.05 for root  4
      energy=    -398.094943
      conf/sym  111111     Coeff  Weight
             2  2220u0  -0.95501 0.91204
             9  22u0du   0.06454 0.00417
            11  22u0ud   0.12521 0.01568
            13  2u2200   0.08802 0.00775
            16  2u2020   0.12952 0.01678
            21  2u2002   0.08015 0.00642
            29  u220ud   0.05398 0.00291
            31  2202u0   0.06480 0.00420
            38  2200u2  -0.06202 0.00385
            43  2ud02u  -0.08578 0.00736
            47  u2d2u0  -0.06245 0.00390
            62  2020u2  -0.05283 0.00279
            71  0222u0   0.07858 0.00618
 
      Natural orbitals and occupation numbers for root  1
      sym 1:   1.994887   1.949419   1.958169   1.000000   0.059657   0.037868
 
      Natural orbitals and occupation numbers for root  2
      sym 1:   1.979337   1.938115   1.006422   1.998398   0.047471   0.030258
 
      Natural orbitals and occupation numbers for root  3
      sym 1:   1.986200   1.013666   1.932827   1.981524   0.049382   0.036401
 
      Natural orbitals and occupation numbers for root  4
      sym 1:   1.977378   1.971991   1.951002   0.048801   0.992338   0.058489
 
      ************************************************************************************************************************
      *                                                                                                                      *
      *                                                    Final results                                                     *
      *                                                                                                                      *
      ************************************************************************************************************************
 
 
++    Wave function specifications:
      -----------------------------
 
      Number of closed shell electrons          10
      Number of electrons in active shells       7
      Max number of holes in RAS1 space          0
      Max nr of electrons in RAS3 space          0
      Number of inactive orbitals                5
      Number of active orbitals                  6
      Number of secondary orbitals              17
      Spin quantum number                      0.5
      State symmetry                             1
--
 
++    Orbital specifications:
      -----------------------
 
      Symmetry species                           1
                                                 a
      Frozen orbitals                            0
      Inactive orbitals                          5
      Active orbitals                            6
      RAS1 orbitals                              0
      RAS2 orbitals                              6
      RAS3 orbitals                              0
      Secondary orbitals                        17
      Deleted orbitals                           0
      Number of basis functions                 28
--
 
++    CI expansion specifications:
      ----------------------------
 
      Number of CSFs                           210
      Number of determinants                   300
      Number of root(s) required                 4
      CI roots used                              1     2     3     4
      weights                                0.250 0.250 0.250 0.250
      highest root included in the CI            4
      Root passed to geometry opt.               4
--
 
++    Final optimization conditions:
      ------------------------------
 
      Average CI energy                            -398.22922457
      RASSCF energy for state  4                   -398.09494344
      Super-CI energy                                -0.00000000
      RASSCF energy change                            0.00000000
      Max change in MO coefficients               0.144E-03
      Max non-diagonal density matrix element     0.457E-04
      Maximum BLB matrix element                  0.272E-05
      (orbital pair   8,  17 in symmetry   1)
      Norm of electronic gradient            0.802E-01
--
 
 
      Final state energy(ies):
      ------------------------
 
::    RASSCF root number  1 Total energy:   -398.36770066
::    RASSCF root number  2 Total energy:   -398.23363527
::    RASSCF root number  3 Total energy:   -398.22061892
::    RASSCF root number  4 Total energy:   -398.09494344
 
++    Molecular orbitals:
      -------------------
 
      Pseudonatural active orbitals and approximate occupation numbers
 
 
 
 
      Molecular orbitals for symmetry species 1: a  
 
 
      Orbital                 1         2         3         4         5         6         7         8         9        10
      Energy           -92.3785   -9.3717   -7.0505   -7.0504   -7.0501   -1.2719   -0.0000   -0.0000    0.0013   -0.0000
      Occ. No.           2.0000    2.0000    2.0000    2.0000    2.0000    1.9821    1.7100    1.7117    1.2572    0.2955
 
     1 S1     1s         1.0000    0.0001    0.0000   -0.0000    0.0000    0.0040    0.0000   -0.0026    0.0000   -0.0000
     2 S1     2s         0.0001    1.0010   -0.0047    0.0000   -0.0000    0.0312    0.0000   -0.0257    0.0000   -0.0000
     3 S1     3s         0.0004   -0.0002    0.0060   -0.0000    0.0000    1.0001    0.0001   -0.4141    0.0000   -0.0000
     4 S1     *s        -0.0003   -0.0043   -0.0023    0.0000   -0.0000   -0.1152    0.0000   -0.0030    0.0000   -0.0000
     5 S1     2px        0.0000    0.0000   -0.0004    0.0003    1.0000    0.0000   -0.0000    0.0000    0.0085    0.0000
     6 S1     3px       -0.0000    0.0000   -0.0000    0.0000   -0.0003   -0.0000   -0.0000    0.0001    1.0752    0.0000
     7 S1     *px        0.0000   -0.0000    0.0000   -0.0000    0.0005    0.0000    0.0000   -0.0000   -0.0913   -0.0000
     8 S1     2py        0.0000    0.0000    0.0001    1.0000   -0.0003   -0.0000    0.0005    0.0000   -0.0000    0.0255
     9 S1     3py       -0.0000    0.0000    0.0000    0.0005    0.0000   -0.0000    0.8106    0.0002    0.0000    0.8683
    10 S1     *py        0.0000   -0.0000   -0.0000   -0.0001   -0.0000    0.0000   -0.1562   -0.0000   -0.0000    0.0436
    11 S1     2pz        0.0001    0.0056    1.0000   -0.0001    0.0004   -0.0084    0.0000   -0.0000    0.0000   -0.0000
    12 S1     3pz        0.0001    0.0023    0.0012   -0.0000    0.0000    0.1199   -0.0002    0.8305   -0.0000   -0.0000
    13 S1     *pz       -0.0001   -0.0034   -0.0004    0.0000    0.0000   -0.0263    0.0000   -0.1415    0.0000   -0.0000
[...]
   16         0.488125       5 0.5  0.9986    6 0.5  0.0013    4 0.5  0.0000   11 1.5  0.0000   10 1.5  0.0000
   17         0.503122       6 0.5  0.9986    5 0.5  0.0013   10 1.5  0.0000    4 0.5  0.0000   11 1.5  0.0000
   18         0.503122       6 0.5  0.9986    5 0.5  0.0013   10 1.5  0.0000    4 0.5  0.0000   11 1.5  0.0000
   19         0.614673      10 1.5  0.9950   11 1.5  0.0050    6 0.5  0.0000    5 0.5  0.0000   12 1.5  0.0000
   20         0.614673      10 1.5  0.9950   11 1.5  0.0050    6 0.5  0.0000    5 0.5  0.0000   12 1.5  0.0000
   21         0.614691      10 1.5  0.9994   11 1.5  0.0006    6 0.5  0.0000    5 0.5  0.0000   12 1.5  0.0000
   22         0.614691      10 1.5  0.9994   11 1.5  0.0006    6 0.5  0.0000    5 0.5  0.0000   12 1.5  0.0000
   23         0.619106      11 1.5  0.9994   10 1.5  0.0006    5 0.5  0.0000    6 0.5  0.0000    4 0.5  0.0000
   24         0.619106      11 1.5  0.9994   10 1.5  0.0006    5 0.5  0.0000    6 0.5  0.0000    4 0.5  0.0000
   25         0.619128      11 1.5  0.9950   10 1.5  0.0050    5 0.5  0.0000    6 0.5  0.0000   12 1.5  0.0000
   26         0.619128      11 1.5  0.9950   10 1.5  0.0050    5 0.5  0.0000    6 0.5  0.0000   12 1.5  0.0000
   27         0.698900      12 1.5  1.0000    6 0.5  0.0000   11 1.5  0.0000    5 0.5  0.0000   10 1.5  0.0000
   28         0.698900      12 1.5  1.0000    6 0.5  0.0000   11 1.5  0.0000    5 0.5  0.0000   10 1.5  0.0000
   29         0.698901      12 1.5  1.0000    5 0.5  0.0000   11 1.5  0.0000    6 0.5  0.0000   10 1.5  0.0000
   30         0.698901      12 1.5  1.0000    5 0.5  0.0000   11 1.5  0.0000    6 0.5  0.0000   10 1.5  0.0000
 -------------------------------------------------------------------------------
 ------------------------
 
 
      ****************************************************************************************************
      *                                                                                                  *
      *                                    Special properties section                                    *
      *                                                                                                  *
      ****************************************************************************************************
 
 
++ Dipole transition strengths (SO states):
   ----------------------------------------
        for osc. strength at least   1.00000000E-05
 
      From   To        Osc. strength     Einstein coefficients Ax, Ay, Az (sec-1)    Total A (sec-1)
     -----------------------------------------------------------------------------------------------
         1    9       1.10187477E-04  1.58724534E+05  6.19709102E-03  1.38325796E-03  1.58724542E+05
         2    7       4.92184825E-03  3.08932736E-09  6.71123444E+04  2.18571822E-10  6.71123444E+04
         3    5       3.13007448E-05  4.53949334E-13  2.68536556E+02  2.38343993E-14  2.68536556E+02
         3    8       4.88813257E-03  3.14176749E-09  6.68116503E+04  2.28511023E-10  6.68116503E+04
         4    6       4.91858457E-03  3.01865205E-09  6.69790872E+04  2.18140382E-10  6.69790872E+04
         5    9       7.49255744E-03  1.40995331E-06  1.93620721E+05  8.02253970E-08  1.93620721E+05
         6   11       2.57223181E-04  3.16295085E+04  1.98973469E-09  1.91325069E-06  3.16295085E+04
         7   12       2.57185722E-04  3.16200343E+04  1.55736804E-09  1.96730562E-06  3.16200343E+04
         8    9       5.25360535E-05  8.41588179E-09  9.78392312E+02  4.79870366E-10  9.78392312E+02
         8   10       2.54671126E-04  3.12793448E+04  1.57353999E-09  1.88789153E-06  3.12793448E+04
        13   16       8.35121554E-03  4.38523405E+06  4.09937236E+01  1.26893581E-01  4.38527517E+06
        13   17       1.23921806E-05  8.04833708E+03  7.51944064E+01  2.44982045E-04  8.12353174E+03
        14   15       8.35121554E-03  4.38523405E+06  4.09937235E+01  1.26893581E-01  4.38527517E+06
        14   18       1.23921806E-05  8.04833708E+03  7.51944064E+01  2.44982051E-04  8.12353173E+03
        15   17       4.09753550E-04  1.44651123E-01  2.96103597E+03  1.06336134E-08  2.96118062E+03
        16   18       4.09753550E-04  1.44651123E-01  2.96103597E+03  1.06336134E-08  2.96118062E+03
        19   25       5.27830683E-04  1.41307558E-10  3.36538757E+02  1.15675859E-11  3.36538757E+02
        19   27       5.72225701E-04  3.25943985E-07  7.99191735E-08  1.30429534E+05  1.30429534E+05
        19   29       5.33228964E-05  1.18596565E-07  1.21545081E+04  8.05451587E-06  1.21545081E+04
        19   30       7.49270962E-03  4.26163874E-06  4.06374019E-08  1.70790046E+06  1.70790046E+06
        20   26       5.27830683E-04  1.41307558E-10  3.36538757E+02  1.15675858E-11  3.36538757E+02
        20   28       5.72225982E-04  3.25944144E-07  7.99191735E-08  1.30429598E+05  1.30429598E+05
        20   29       7.49270933E-03  4.26163858E-06  4.06374029E-08  1.70790040E+06  1.70790040E+06
        20   30       5.33228989E-05  1.18596571E-07  1.21545086E+04  8.05451515E-06  1.21545086E+04
        21   23       5.23220780E-04  4.11037517E-10  3.27768001E+02  1.11713955E-11  3.27768001E+02
        21   28       7.52335146E-03  4.28046895E-06  7.54251703E-08  1.71411616E+06  1.71411616E+06
        21   29       5.75634998E-04  3.27048092E-07  2.08144222E-07  1.31156906E+05  1.31156906E+05
        22   24       5.23220780E-04  4.11037520E-10  3.27768001E+02  1.11713957E-11  3.27768001E+02
        22   27       7.52335175E-03  4.28046910E-06  7.54251560E-08  1.71411622E+06  1.71411622E+06
        22   30       5.75634716E-04  3.27047927E-07  2.08144240E-07  1.31156842E+05  1.31156842E+05
        23   28       1.03233507E-02  1.95871272E-05  2.11186932E+06  2.03193473E-08  2.11186932E+06
        23   29       1.55851167E-03  9.03473207E-06  3.18839651E+05  2.34996412E-07  3.18839651E+05
        24   27       1.03233513E-02  1.95871283E-05  2.11186943E+06  2.03193456E-08  2.11186943E+06
        24   30       1.55851112E-03  9.03473088E-06  3.18839540E+05  2.34996440E-07  3.18839540E+05
        25   27       1.55317028E-03  2.91010529E-06  3.17562602E+05  1.62154546E-07  3.17562602E+05
        25   29       3.46679234E-05  1.97901796E-08  3.65526129E-06  7.08849473E+03  7.08849473E+03
        25   30       1.02750738E-02  1.92522783E-05  2.10092787E+06  3.54615529E-08  2.10092787E+06
        26   28       1.55317082E-03  2.91010630E-06  3.17562713E+05  1.62154562E-07  3.17562713E+05
        26   29       1.02750733E-02  1.92522773E-05  2.10092776E+06  3.54615444E-08  2.10092776E+06
        26   30       3.46679249E-05  1.97901805E-08  3.65526128E-06  7.08849504E+03  7.08849504E+03
     -----------------------------------------------------------------------------------------------
--
 
++ Velocity transition strengths (SO states):
   ------------------------------------------
        for osc. strength at least   1.00000000E-05
 
      From   To        Osc. strength     Einstein coefficients Ax, Ay, Az (sec-1)    Total A (sec-1)
     -----------------------------------------------------------------------------------------------
         1    9       4.09204203E-03  5.89456727E+06  5.02971829E-03  3.36123905E-03  5.89456728E+06
         2    4       4.12546120E-02  7.26709780E-17  8.56579279E-02  7.15118439E-14  8.56579279E-02
         2    7       1.12157764E-02  2.59289090E-10  1.52933818E+05  1.27677964E-07  1.52933818E+05
         3    5       1.31095210E-04  8.78041005E-10  1.12469708E+03  1.24341443E-09  1.12469708E+03
         3    8       1.11135970E-02  3.84025720E-10  1.51902132E+05  1.26450205E-07  1.51902132E+05
         4    6       1.12231733E-02  2.87450847E-10  1.52832160E+05  1.27593088E-07  1.52832160E+05
         5    9       6.93042718E-04  2.17210533E-05  1.79094297E+04  3.25424034E-07  1.79094297E+04
         6    7       5.94541993E-02  1.85396895E-16  5.98369172E-02  4.99553255E-14  5.98369172E-02
         6    8       1.97477245E-05  7.42809327E-04  7.06868039E-13  4.46939340E-14  7.42809328E-04
         6   11       5.92450296E-05  7.28507889E+03  8.95023842E-06  4.38334229E-07  7.28507890E+03
         7   12       5.93399362E-05  7.29562590E+03  8.94267445E-06  4.36353399E-07  7.29562590E+03
         8   10       5.87238536E-05  7.21261061E+03  8.84396505E-06  4.33973907E-07  7.21261062E+03
        10   11       3.57801636E-04  3.31804719E-05  4.07315600E-14  1.99642950E-15  3.31804719E-05
        13   16       1.48212038E-02  7.78269805E+06  7.53970620E+00  6.41465405E-01  7.78270623E+06
        13   17       1.74280053E-05  1.14098860E+04  1.48137636E+01  9.40425437E-04  1.14247007E+04
        14   15       1.48212038E-02  7.78269805E+06  7.53970619E+00  6.41465405E-01  7.78270623E+06
        14   18       1.74280053E-05  1.14098860E+04  1.48137636E+01  9.40425437E-04  1.14247007E+04
        15   17       6.45387891E-03  2.20433709E+01  4.66184338E+04  2.62974685E-05  4.66404772E+04
        16   18       6.45387891E-03  2.20433709E+01  4.66184338E+04  2.62974685E-05  4.66404772E+04
        19   21       2.20309575E-03  2.08912177E-12  2.14858007E-02  2.74550528E-13  2.14858007E-02
        19   24       8.45284704E-04  1.93087182E-06  5.33709557E+02  4.97128947E-11  5.33709559E+02
        19   25       8.11859171E-02  1.84097442E-06  5.17632046E+04  6.39594513E-10  5.17632046E+04
        19   27       9.36663095E-04  2.18633318E-06  2.69135795E-07  2.13497106E+05  2.13497106E+05
        19   28       1.42874670E-05  5.66322806E-07  3.25659550E+03  4.27851225E-05  3.25659555E+03
        19   29       1.16862105E-04  4.63355958E-06  2.66377389E+04  1.29296427E-05  2.66377390E+04
        19   30       1.22666515E-02  2.86341700E-05  2.17589057E-07  2.79608057E+06  2.79608057E+06
        20   22       2.20309575E-03  2.08912176E-12  2.14858007E-02  2.74550529E-13  2.14858007E-02
        20   23       8.45284703E-04  1.93087182E-06  5.33709557E+02  4.97128927E-11  5.33709559E+02
        20   26       8.11859171E-02  1.84097442E-06  5.17632046E+04  6.39594513E-10  5.17632046E+04
        20   27       1.42874615E-05  5.66322586E-07  3.25659424E+03  4.27851251E-05  3.25659428E+03
        20   28       9.36663555E-04  2.18633426E-06  2.69135820E-07  2.13497211E+05  2.13497211E+05
        20   29       1.22666510E-02  2.86341689E-05  2.17589033E-07  2.79608046E+06  2.79608046E+06
        20   30       1.16862110E-04  4.63355980E-06  2.66377402E+04  1.29296415E-05  2.66377402E+04
        21   23       8.33046609E-02  2.29227292E-06  5.21856226E+04  6.36874230E-10  5.21856226E+04
        21   26       8.42011621E-04  2.05051907E-08  5.32665807E+02  6.68253729E-12  5.32665807E+02
        21   27       1.17596565E-05  4.66169196E-07  2.67931348E+03  1.31056544E-05  2.67931350E+03
        21   28       1.23217527E-02  2.87496239E-05  2.36549952E-07  2.80738120E+06  2.80738120E+06
        21   29       9.42929794E-04  2.20016879E-06  4.74099349E-07  2.14844050E+05  2.14844050E+05
        22   24       8.33046609E-02  2.29227292E-06  5.21856226E+04  6.36874230E-10  5.21856226E+04
        22   25       8.42011621E-04  2.05051907E-08  5.32665807E+02  6.68253742E-12  5.32665807E+02
        22   27       1.23217532E-02  2.87496250E-05  2.36549930E-07  2.80738130E+06  2.80738130E+06
        22   28       1.17596556E-05  4.66169161E-07  2.67931328E+03  1.31056559E-05  2.67931330E+03
        22   30       9.42929331E-04  2.20016774E-06  4.74099380E-07  2.14843944E+05  2.14843944E+05
        23   25       1.19072917E-03  2.24345236E-08  1.79898214E-02  1.77625030E-15  1.79898438E-02
        23   28       2.46878671E-02  8.71072705E-04  5.05044830E+06  2.28003120E-06  5.05044830E+06
        23   29       3.72669733E-03  1.58368430E-04  7.62406148E+05  8.73946703E-07  7.62406148E+05
        24   26       1.19072917E-03  2.24345237E-08  1.79898213E-02  1.77625031E-15  1.79898437E-02
        24   27       2.46878684E-02  8.71072751E-04  5.05044856E+06  2.28003133E-06  5.05044856E+06
        24   30       3.72669603E-03  1.58368383E-04  7.62405882E+05  8.73946616E-07  7.62405882E+05
        25   27       3.71627063E-03  1.30875852E-04  7.59832057E+05  9.59670800E-07  7.59832057E+05
        25   29       6.28545176E-05  1.31521494E-07  8.49222330E-06  1.28517625E+04  1.28517625E+04
        25   30       2.45824476E-02  8.65760782E-04  5.02633367E+06  2.52225344E-06  5.02633367E+06
        26   28       3.71627192E-03  1.30875898E-04  7.59832322E+05  9.59671010E-07  7.59832322E+05
        26   29       2.45824463E-02  8.65760737E-04  5.02633340E+06  2.52225324E-06  5.02633340E+06
        26   30       6.28545203E-05  1.31521499E-07  8.49222324E-06  1.28517630E+04  1.28517630E+04
        27   29       2.26542660E-03  2.66914558E-14  1.55469391E-04  9.77307930E-15  1.55469391E-04
        28   30       2.26542711E-03  2.66914618E-14  1.55469426E-04  9.77308234E-15  1.55469426E-04
     -----------------------------------------------------------------------------------------------
--
 
++ Length and velocity gauge comparison (SO states):
 
 --------------------------------------------------
 A comparison between the dipole oscillator strengths in 
 length and velocity gauge will be performed
 
     All dipole oscillator differences above the tolerance of   1.00000000E-01  will be printed 
 
 Due to basis set deficiency these oscillator may be problematic 
 
 The tolerance is defined as ABS(1-O_l/O_v) 
 O_l : dipole oscillator strength in length gauge
 O_p : dipole oscillator strength in velocity gauge
 --------------------------------------------------
 
  Problematic transitions have been found
 
      From   To       Difference (%) Osc. st. (len.) Osc. st. (vel.)
     ---------------------------------------------------------------
         1    9            97.307274  1.10187477E-04  4.09204203E-03
         2    4      --------------- below threshold  4.12546120E-02
         2    7            56.116740  4.92184825E-03  1.12157764E-02
         3    5            76.123655  3.13007448E-05  1.31095210E-04
         3    8            56.016647  4.88813257E-03  1.11135970E-02
         4    6            56.174743  4.91858457E-03  1.12231733E-02
         5    9           981.110477  7.49255744E-03  6.93042718E-04
         6    7      --------------- below threshold  5.94541993E-02
         6    8      --------------- below threshold  1.97477245E-05
         6   11           334.168373  2.57223181E-04  5.92450296E-05
         7   12           333.410850  2.57185722E-04  5.93399362E-05
         8    9      ---------------  5.25360535E-05 below threshold
         8   10           333.675773  2.54671126E-04  5.87238536E-05
        10   11      --------------- below threshold  3.57801636E-04
        13   16            43.653595  8.35121554E-03  1.48212038E-02
        13   17            28.895015  1.23921806E-05  1.74280053E-05
        14   15            43.653595  8.35121554E-03  1.48212038E-02
        14   18            28.895015  1.23921806E-05  1.74280053E-05
        15   17            93.651050  4.09753550E-04  6.45387891E-03
        16   18            93.651050  4.09753550E-04  6.45387891E-03
        19   21      --------------- below threshold  2.20309575E-03
        19   24      --------------- below threshold  8.45284704E-04
        19   25            99.349849  5.27830683E-04  8.11859171E-02
        19   27            38.908055  5.72225701E-04  9.36663095E-04
        19   28      --------------- below threshold  1.42874670E-05
        19   29            54.371097  5.33228964E-05  1.16862105E-04
        19   30            38.918053  7.49270962E-03  1.22666515E-02
        20   22      --------------- below threshold  2.20309575E-03
        20   23      --------------- below threshold  8.45284703E-04
        20   26            99.349849  5.27830683E-04  8.11859171E-02
        20   27      --------------- below threshold  1.42874615E-05
        20   28            38.908055  5.72225982E-04  9.36663555E-04
        20   29            38.918053  7.49270933E-03  1.22666510E-02
        20   30            54.371097  5.33228989E-05  1.16862110E-04
        21   23            99.371919  5.23220780E-04  8.33046609E-02
        21   26      --------------- below threshold  8.42011621E-04
        21   27      --------------- below threshold  1.17596565E-05
        21   28            38.942522  7.52335146E-03  1.23217527E-02
        21   29            38.952507  5.75634998E-04  9.42929794E-04
        22   24            99.371919  5.23220780E-04  8.33046609E-02
        22   25      --------------- below threshold  8.42011621E-04
        22   27            38.942522  7.52335175E-03  1.23217532E-02
        22   28      --------------- below threshold  1.17596556E-05
        22   30            38.952507  5.75634716E-04  9.42929331E-04
        23   25      --------------- below threshold  1.19072917E-03
        23   28            58.184518  1.03233507E-02  2.46878671E-02
        23   29            58.179816  1.55851167E-03  3.72669733E-03
        24   26      --------------- below threshold  1.19072917E-03
        24   27            58.184518  1.03233513E-02  2.46878684E-02
        24   30            58.179816  1.55851112E-03  3.72669603E-03
        25   27            58.206212  1.55317028E-03  3.71627063E-03
        25   29            44.844182  3.46679234E-05  6.28545176E-05
        25   30            58.201584  1.02750738E-02  2.45824476E-02
        26   28            58.206212  1.55317082E-03  3.71627192E-03
        26   29            58.201584  1.02750733E-02  2.45824463E-02
        26   30            44.844182  3.46679249E-05  6.28545203E-05
        27   29      --------------- below threshold  2.26542660E-03
        28   30      --------------- below threshold  2.26542711E-03
     ---------------------------------------------------------------
 
 Number of problematic transitions =                     58
 
--
 
 Electric-dipole - electric-octupole not included
++ I/O STATISTICS
 
  I. General I/O information
  - - - - - - - - - - - - - - - - - - - - - - - - - - - - - - - - - - - - - - - - - - -
  Unit  Name          Flsize      Write/Read            MBytes           Write/Read
                      (MBytes)       Calls              In/Out           Time, sec.
  - - - - - - - - - - - - - - - - - - - - - - - - - - - - - - - - - - - - - - - - - - -
   1  ANNI              0.00 .       0/       0 .      0.0/      0.0 .       0/       0
   2  RUNFILE           0.29 .     322/   28122 .      2.3/    203.5 .       0/       0
   3  ONEINT            1.46 .       0/    3720 .      0.0/   3363.8 .       0/       0
   4  JOB001            1.22 .       0/      67 .      0.0/      1.1 .       0/       0
   5  JOB002            1.22 .       0/      67 .      0.0/      1.1 .       0/       0
   6  JOB003            1.22 .       0/      67 .      0.0/      1.1 .       0/       0
   7  JOB004            1.22 .       0/      67 .      0.0/      1.1 .       0/       0
  - - - - - - - - - - - - - - - - - - - - - - - - - - - - - - - - - - - - - - - - - - -
   *  TOTAL             6.63 .     322/   32110 .      2.3/   3571.8 .       0/       0
  - - - - - - - - - - - - - - - - - - - - - - - - - - - - - - - - - - - - - - - - - - -
 
  II. I/O Access Patterns
  - - - - - - - - - - - - - - - - - - - -
  Unit  Name               % of random
                         Write/Read calls
  - - - - - - - - - - - - - - - - - - - -
   1  ANNI                 0.0/   0.0
   2  RUNFILE             28.6/  11.0
   3  ONEINT               0.0/  97.5
   4  JOB001               0.0/  68.7
   5  JOB002               0.0/  68.7
   6  JOB003               0.0/  68.7
   7  JOB004               0.0/  68.7
  - - - - - - - - - - - - - - - - - - - -
--
--- Stop Module: rassi at Fri Mar 22 12:51:02 2024 /rc=_RC_ALL_IS_WELL_ ---
--- Module rassi spent 5 seconds ---

.##################.
.# Happy landing! #.
.##################.

    Timing: Wall=30.89 User=26.38 System=4.09
