   This run of MOLCAS is using the pymolcas driver

                             OPE
                             OPE          NMOL  CASOP  ENMOLC A   SO
                 OPE        NMOLC        AS  OP EN  MO LC     AS  OP
                OPENM       OL CA        SO  PE NM  OL CA     SOP EN
                OP EN      MO   LC       AS  OP ENMOL  CASO   PENMOL
                OP  EN     MO   LC       AS  OP EN     MO     LC ASO
               OP   E  NMOL  C  AS       OP  EN MO     LC     AS  OP
               OP  E   NMO   LC AS        OPEN  MO     LCASOP EN   M
               O  PEN   MO  LCA  SO
            OPE   NMO   L   CAS    OP
        OPENMOL  CASOP     ENMOL   CASOPE
     OPENMOLCA   SOPENMOLCASOPEN   MOLCASOPE
    OPENMOLCAS   OP           EN   MOL    CAS
    OPENMOLCAS       OP  ENM        O     LCA
    OPENMOLCAS    OPEN  MOLCASO     P  E  NMO
    OPENMOLCAS     OP               E  N  MOL
    OPENMOLCA   SO           PENM   O  L  CAS    OPEN    MO    LCAS
    OPENMOLCA   SOP           ENM   O  L  CAS   OP  EN  MOLC  AS   O
    OPENMOLCA   SOPE           NM      O  LCA   S      OP  EN MO
    OPENMOLC                AS         O  PEN   M      OL  CA  SOPE
    OPENMO        LCASOPE  NMOL        C  ASO   P      ENMOLC     AS
    OPE     NMO      LCA  SO     P     E   NM   OL  CA SO  PE N   MO
          OPENMOLCA            SOPE   NMO        LCAS  O    P  ENMO
     OPENMOLCASOPENMOLCASOPENMOLCASOPENMOLCA
        OPENMOLCASOPENMOLCASOPENMOLCASOPE
            OPENMOLCASOPENMOLCASOPENM
               OPENMOLCASOPENMOLCA        version: v23.10
                   OPENMOLCASO
                       OPE                tag:

 OpenMolcas is free software; you can redistribute it and/or modify it
 under the terms of the GNU Lesser General Public License version 2.1.
 OpenMolcas is distributed in the hope that it will be useful, but it
 is provided "as is" and without any express or implied warranties.
 For more details see the full text of the license in the file
 LICENSE or in <http://www.gnu.org/licenses/>.

                 Copyright (C) The OpenMolcas Authors
           For the author list and the recommended citation,
                   consult the file CONTRIBUTORS.md

           *************************************************
           * pymolcas version py2.25                       *
           *   build 2b27fa14244bdc32cb1957e6230cd793      *
           *   (after the EMIL interpreter by V. Veryazov) *
           *************************************************

configuration info
------------------
Host name: manganese.itc.univie.ac.at (Linux)
C Compiler ID: Clang
C flags: -std=gnu99
Fortran Compiler ID: Intel
Fortran flags: -fpp -i8 -heap-arrays
Definitions: _MOLCAS_;_I8_;_LINUX_
Parallel: OFF (GA=OFF)


   ---------------------------------------------------------------------------
  |
  |           Project: MOLCAS
  |    Submitted from: /public/manganese/scratch/tmp/sascha.925337/WORK/master
  |      Scratch area: /public/manganese/scratch/tmp/sascha.925337/WORK/master
  |   Save outputs to: WORKDIR
  |            Molcas: /usr/license/openmolcas/v23.10
  |
  | Scratch area is NOT empty
  |
  |        MOLCASMEM = 10000
  |    MOLCAS_DRIVER = /usr/license/openmolcas/v23.10/pymolcas
  |    MOLCAS_NPROCS = 1
  |    MOLCAS_SOURCE = /usr/license/openmolcas/v23.10
  | MOLCAS_STRUCTURE = 0
  |
   ---------------------------------------------------------------------------

++ ---------   Input file   ---------

&GATEWAY
COORD=MOLCAS.xyz
GROUP=NOSYM
BASIS=cc-pvdz
AMFI
angmom
0 0 0
BASLIB
/user/sascha/development/eci/sharc_main/examples/SHARC_MOLCAS/basisset

RICD
CDTHreshold=0.0001

&SEWARD

>>> COPY /public/manganese/scratch/tmp/sascha.925337/SAVE/MOLCAS.1.JobIph.0 JOBOLD

&RASSCF
SPIN=1
NACTEL=8 0 0
INACTIVE=5
RAS2=6
ITERATIONS=200,100
CIROOT=6 6 1
ORBLISTING=NOTHING
PRWF=0.1
THRS=0.000000010000 0.000100000000 0.000100000000
JOBIPH

>>> COPY MOLCAS.rasscf.molden MOLCAS.1.molden

&CASPT2
SHIFT=0.0
IMAGINARY= 0.000
IPEASHIFT= 0.25
MAXITER=120
NOMULT

OUTPUT=BRIEF
PRWF=0.1

>>> COPY MOLCAS.JobMix MOLCAS.1.JobIph

>>> COPY /public/manganese/scratch/tmp/sascha.925337/SAVE/MOLCAS.2.JobIph.0 JOBOLD

&RASSCF
SPIN=2
NACTEL=7 0 0
INACTIVE=5
RAS2=6
ITERATIONS=200,100
CIROOT=4 4 1
ORBLISTING=NOTHING
PRWF=0.1
THRS=0.000000010000 0.000100000000 0.000100000000
JOBIPH

>>> COPY MOLCAS.rasscf.molden MOLCAS.2.molden

&CASPT2
SHIFT=0.0
IMAGINARY= 0.000
IPEASHIFT= 0.25
MAXITER=120
NOMULT

OUTPUT=BRIEF
PRWF=0.1

>>> COPY MOLCAS.JobMix MOLCAS.2.JobIph

>>> COPY /public/manganese/scratch/tmp/sascha.925337/SAVE/MOLCAS.3.JobIph.0 JOBOLD

&RASSCF
SPIN=3
NACTEL=8 0 0
INACTIVE=5
RAS2=6
ITERATIONS=200,100
CIROOT=4 4 1
ORBLISTING=NOTHING
PRWF=0.1
THRS=0.000000010000 0.000100000000 0.000100000000
JOBIPH

>>> COPY MOLCAS.rasscf.molden MOLCAS.3.molden

&CASPT2
SHIFT=0.0
IMAGINARY= 0.000
IPEASHIFT= 0.25
MAXITER=120
NOMULT

OUTPUT=BRIEF
PRWF=0.1

>>> COPY MOLCAS.JobMix MOLCAS.3.JobIph

>>> COPY /public/manganese/scratch/tmp/sascha.925337/SAVE/MOLCAS.4.JobIph.0 JOBOLD

&RASSCF
SPIN=4
NACTEL=7 0 0
INACTIVE=5
RAS2=6
ITERATIONS=200,100
CIROOT=4 4 1
ORBLISTING=NOTHING
PRWF=0.1
THRS=0.000000010000 0.000100000000 0.000100000000
JOBIPH

>>> COPY MOLCAS.rasscf.molden MOLCAS.4.molden

&CASPT2
SHIFT=0.0
IMAGINARY= 0.000
IPEASHIFT= 0.25
MAXITER=120
NOMULT

OUTPUT=BRIEF
PRWF=0.1

>>> COPY MOLCAS.JobMix MOLCAS.4.JobIph

>>> COPY /public/manganese/scratch/tmp/sascha.925337/SAVE/MOLCAS.1.JobIph.0 JOB001

>>> COPY MOLCAS.1.JobIph JOB002

&RASSI
NROFJOBIPHS
2 3 3
1 2 3
1 2 3
MEIN
EJOB
OVERLAPS

>>> COPY MOLCAS.rassi.h5 MOLCAS.rassi.ovlp.1.h5

>>> COPY MOLCAS.1.JobIph JOB001

&RASSI
NROFJOBIPHS
1 3
1 2 3
MEIN
EJOB

>>> COPY MOLCAS.rassi.h5 MOLCAS.rassi.1.h5

>>> COPY /public/manganese/scratch/tmp/sascha.925337/SAVE/MOLCAS.2.JobIph.0 JOB001

>>> COPY MOLCAS.2.JobIph JOB002

&RASSI
NROFJOBIPHS
2 3 3
1 2 3
1 2 3
MEIN
EJOB
OVERLAPS

>>> COPY MOLCAS.rassi.h5 MOLCAS.rassi.ovlp.2.h5

>>> COPY MOLCAS.2.JobIph JOB001

&RASSI
NROFJOBIPHS
1 3
1 2 3
MEIN
EJOB

>>> COPY MOLCAS.rassi.h5 MOLCAS.rassi.2.h5

>>> COPY /public/manganese/scratch/tmp/sascha.925337/SAVE/MOLCAS.3.JobIph.0 JOB001

>>> COPY MOLCAS.3.JobIph JOB002

&RASSI
NROFJOBIPHS
2 3 3
1 2 3
1 2 3
MEIN
EJOB
OVERLAPS

>>> COPY MOLCAS.rassi.h5 MOLCAS.rassi.ovlp.3.h5

>>> COPY MOLCAS.3.JobIph JOB001

&RASSI
NROFJOBIPHS
1 3
1 2 3
MEIN
EJOB

>>> COPY MOLCAS.rassi.h5 MOLCAS.rassi.3.h5

>>> COPY /public/manganese/scratch/tmp/sascha.925337/SAVE/MOLCAS.4.JobIph.0 JOB001

>>> COPY MOLCAS.4.JobIph JOB002

&RASSI
NROFJOBIPHS
2 3 3
1 2 3
1 2 3
MEIN
EJOB
OVERLAPS

>>> COPY MOLCAS.rassi.h5 MOLCAS.rassi.ovlp.4.h5

>>> COPY MOLCAS.4.JobIph JOB001

&RASSI
NROFJOBIPHS
1 3
1 2 3
MEIN
EJOB

>>> COPY MOLCAS.rassi.h5 MOLCAS.rassi.4.h5

>>> COPY MOLCAS.1.JobIph JOB001

>>> COPY MOLCAS.2.JobIph JOB002

>>> COPY MOLCAS.3.JobIph JOB003

>>> COPY MOLCAS.4.JobIph JOB004

&RASSI
NROFJOBIPHS
4 3 3 3 3
1 2 3
1 2 3
1 2 3
1 2 3
MEIN
EJOB
SPINORBIT
SOCOUPLING=0.0d0
EJOB

-- ----------------------------------

--- Start Module: gateway at Fri Mar 22 12:42:58 2024 ---
 
()()()()()()()()()()()()()()()()()()()()()()()()()()()()()()()()()()()()()()()()()()()()()()()()()()

                                              &GATEWAY

                                   only a single process is used
                       available to each process: 10 GB of memory, 1 thread?
                                            pid: 1883080
()()()()()()()()()()()()()()()()()()()()()()()()()()()()()()()()()()()()()()()()()()()()()()()()()()
 
 
 
 Basis Set     1 Label: S.CC-PVDZ
 Basis set is read from library:/user/sascha/development/eci/sharc_main/examples/SHARC_MOLCAS/basisset 
 
 
 Basis Set     2 Label: H.CC-PVDZ
 Basis set is read from library:/user/sascha/development/eci/sharc_main/examples/SHARC_MOLCAS/basisset 
 
++    Symmetry information:
      ---------------------
 
                    Character Table for C1 
 
                             E  
                    a        1  x, y, xy, Rz, z, xz, Ry, yz, Rx, I
--
 
 
++    Basis set information:
      ----------------------
 
 
      Basis set label: S.CC-PVDZ.........
 
      Electronic valence basis set:
      ------------------
      Associated Effective Charge  16.000000 au
      Associated Actual Charge     16.000000 au
      Nuclear Model: Point charge
 
      Shell  nPrim  nBasis  Cartesian Spherical Contaminant
         s      12       4        X                  
         p       8       3        X                  
         d       1       1                 X         
 
 
      Basis set label: H.CC-PVDZ.........
 
      Electronic valence basis set:
      ------------------
      Associated Effective Charge   1.000000 au
      Associated Actual Charge      1.000000 au
      Nuclear Model: Point charge
 
      Shell  nPrim  nBasis  Cartesian Spherical Contaminant
         s       4       2        X                  
         p       1       1        X                  
--
 
 
++    Molecular structure info:
      -------------------------
 
                    ************************************************ 
                    **** Cartesian Coordinates / Bohr, Angstrom **** 
                    ************************************************ 
 
     Center  Label                x              y              z                     x              y              z
        1      S1               0.000000       0.000000       0.001589              0.000000       0.000000       0.000841
        2      H2               0.000000       1.842103       2.235421              0.000000       0.974799       1.182934
        3      H3              -0.018897      -1.842103       2.235421             -0.010000      -0.974799       1.182934
 
                    *************************************** 
                    *    InterNuclear Distances / Bohr    * 
                    *************************************** 
 
               1 S1            2 H2            3 H3    
    1 S1       0.000000
    2 H2       2.895401        0.000000
    3 H3       2.895463        3.684255        0.000000
 
                    ******************************************* 
                    *    InterNuclear Distances / Angstrom    * 
                    ******************************************* 
 
               1 S1            2 H2            3 H3    
    1 S1       0.000000
    2 H2       1.532180        0.000000
    3 H3       1.532213        1.949624        0.000000
 
                    ************************************** 
                    *    Valence Bond Angles / Degree    * 
                    ************************************** 
                          Atom centers                 Phi
                      2 H2       1 S1       3 H3        79.02
--
 
 
            Nuclear Potential Energy             11.32331568 au
 
--- Stop Module: gateway at Fri Mar 22 12:42:58 2024 /rc=_RC_ALL_IS_WELL_ ---

--- Start Module: seward at Fri Mar 22 12:42:58 2024 ---
 
()()()()()()()()()()()()()()()()()()()()()()()()()()()()()()()()()()()()()()()()()()()()()()()()()()

                                              &SEWARD

                                   only a single process is used
                       available to each process: 10 GB of memory, 1 thread?
                                            pid: 1883084
()()()()()()()()()()()()()()()()()()()()()()()()()()()()()()()()()()()()()()()()()()()()()()()()()()
 
               SEWARD will generate:
                  Multipole Moment integrals up to order  2
                  Kinetic Energy integrals
                  Nuclear Attraction integrals (point charge)
                  One-Electron Hamiltonian integrals
                  Velocity integrals
                  Orbital angular momentum around ( 0.0000  0.0000  0.0000 )
                  Velocity quadrupole around (-0.0006  0.0000  0.1341 )
                  Atomic mean-field integrals
                  RI decomposed two-electron repulsion integrals stored Cholesky style
                   - acCD auxiliary basis
                   - CD Threshold:   0.10E-03
 
                   Integrals are discarded if absolute value <: 0.10E-13
                   Integral cutoff threshold is set to       <: 0.10E-15
 
            Nuclear Potential Energy             11.32331568 au
 
 
      Basis set specifications :
      Symmetry species         a  
      Basis functions           28
 
 
      Input file to MOLDEN was generated!
 
--- Stop Module: seward at Fri Mar 22 12:42:59 2024 /rc=_RC_ALL_IS_WELL_ ---

>>> COPY /public/manganese/scratch/tmp/sascha.925337/SAVE/MOLCAS.1.JobIph.0 JOBOLD

*** symbolic link created: INPORB -> MOLCAS.GssOrb
--- Start Module: rasscf at Fri Mar 22 12:42:59 2024 ---
 
()()()()()()()()()()()()()()()()()()()()()()()()()()()()()()()()()()()()()()()()()()()()()()()()()()

                                              &RASSCF

                                   only a single process is used
                       available to each process: 10 GB of memory, 1 thread?
                                            pid: 1883098
()()()()()()()()()()()()()()()()()()()()()()()()()()()()()()()()()()()()()()()()()()()()()()()()()()
 
 
      Header of the ONEINT file:
      --------------------------
      
      Integrals generated by Gateway/Seward, Fri Mar 22 12:42:59 2024
 
 
      OrdInt status: non-squared
 
 
      Cartesian coordinates in Angstrom:
      -----------------------------------------------------
      No.  Label        X            Y            Z        
      -----------------------------------------------------
       1   S1         0.00000000   0.00000000   0.00084100
       2   H2         0.00000000   0.97479900   1.18293400
       3   H3        -0.01000000  -0.97479900   1.18293400
      -----------------------------------------------------
      Nuclear repulsion energy =   11.32331568
 
++    Wave function specifications:
      -----------------------------
 
      Number of closed shell electrons          10
      Number of electrons in active shells       8
      Max number of holes in RAS1 space          0
      Max nr of electrons in RAS3 space          0
      Number of inactive orbitals                5
      Number of active orbitals                  6
      Number of secondary orbitals              17
      Spin quantum number                      0.0
      State symmetry                             1
--
 
++    Orbital specifications:
      -----------------------
 
      Symmetry species                           1
                                                 a
      Frozen orbitals                            0
      Inactive orbitals                          5
      Active orbitals                            6
      RAS1 orbitals                              0
      RAS2 orbitals                              6
      RAS3 orbitals                              0
      Secondary orbitals                        17
      Deleted orbitals                           0
      Number of basis functions                 28
--
 
++    CI expansion specifications:
      ----------------------------
 
      Number of CSFs                           105
      Number of determinants                   120
      Number of root(s) required                 6
      Root chosen for geometry opt.              6
      CI roots used                              1     2     3     4     5     6
      weights                                0.167 0.167 0.167 0.167 0.167 0.167
      highest root included in the CI            6
      max. size of the explicit Hamiltonian    105
--
 
++    Optimization specifications:
      ----------------------------
 
      RASSCF algorithm: LK RI/DF
      Maximum number of macro iterations       200
      Maximum number of SX iterations          100
      Threshold for RASSCF energy            0.100E-07
      Threshold for max MO rotation          0.100E-03
      Threshold for max BLB element          0.100E-03
      Level shift parameter                  0.500E+00
      Make Quasi-Newton update
--
 
      The MO-coefficients are taken from the file:
      JOBOLD
      Title:(No title given)                                                        
 
      Total molecular charge    0.00
 
      ************************************************************************************************************************
      *                                                                                                                      *
      *                                            Wave function control section                                             *
      *                                                                                                                      *
      ************************************************************************************************************************
 
 
                                         RASSCF iterations: Energy and convergence statistics
                                         ----------------------------------------------------
 
      Iter CI   SX   CI       RASSCF       Energy    max ROT     max BLB   max BLB  Level Ln srch  Step   QN   Walltime
          iter iter root      energy       change     param      element    value   shift minimum  type update hh:mm:ss
 Nr of preliminary CI iterations:   1
        1   1    4    0  -398.44308776    0.00E+00  -0.56E-03*   9  13 1 -0.71E-03*  0.00   0.00    SX    NO    0:00:00
        2   1    3    0  -398.44309028   -0.25E-05* -0.11E-03*   9  13 1 -0.16E-03*  0.00   0.00    SX    NO    0:00:00
        3   1    3    0  -398.44309036   -0.78E-07* -0.26E-04    9  13 1 -0.39E-04   0.00   0.00    SX    NO    0:00:00
        4   1    3    0  -398.44309036   -0.36E-08   0.69E-05    9  13 1 -0.10E-04   0.00   0.00    SX    NO    0:00:00
      Convergence after  4 iterations
        5   1    3    0  -398.44309036   -0.28E-09   0.69E-05    9  12 1 -0.28E-05   0.00   0.00    SX    NO    0:00:00
 
      ************************************************************************************************************************
                                                      Wave function printout:
                       occupation of active orbitals, and spin coupling of open shells (u,d: Spin up or down)
      ************************************************************************************************************************
 
      Note: transformation to natural orbitals
      has been made, which may change the order of the CSFs.
 
      printout of CI-coefficients larger than  0.10 for root  1
      energy=    -398.691536
      conf/sym  111111     Coeff  Weight
             1  222200  -0.97171 0.94422
            15  2u22d0   0.10925 0.01193
            38  2ud2ud   0.10920 0.01192
 
      printout of CI-coefficients larger than  0.10 for root  2
      energy=    -398.508201
      conf/sym  111111     Coeff  Weight
             2  222ud0   0.97539 0.95139
            10  22udud   0.10906 0.01190
 
      printout of CI-coefficients larger than  0.10 for root  3
      energy=    -398.478577
      conf/sym  111111     Coeff  Weight
             4  222u0d  -0.96184 0.92513
             8  22ud20  -0.11302 0.01277
            18  2u2dud  -0.16520 0.02729
            51  202u2d  -0.10588 0.01121
 
      printout of CI-coefficients larger than  0.10 for root  4
      energy=    -398.351927
      conf/sym  111111     Coeff  Weight
             9  22u20d  -0.74344 0.55270
            15  2u22d0   0.59731 0.35678
            31  220220  -0.17635 0.03110
            52  202202   0.13931 0.01941
 
      printout of CI-coefficients larger than  0.10 for root  5
      energy=    -398.345882
      conf/sym  111111     Coeff  Weight
             7  22u2d0   0.67353 0.45365
            17  2u220d  -0.67543 0.45620
            32  2202ud   0.13692 0.01875
            37  2ud220  -0.14811 0.02194
            40  2ud202   0.15180 0.02304
            50  2022ud  -0.10075 0.01015
 
      printout of CI-coefficients larger than  0.10 for root  6
      energy=    -398.282420
      conf/sym  111111     Coeff  Weight
             7  22u2d0   0.69811 0.48736
            17  2u220d   0.69811 0.48736
 
      Natural orbitals and occupation numbers for root  1
      sym 1:   1.997304   1.961191   1.964606   1.998624   0.048338   0.029938
 
      Natural orbitals and occupation numbers for root  2
      sym 1:   1.998912   1.986431   1.961513   1.000000   0.999157   0.053987
 
      Natural orbitals and occupation numbers for root  3
      sym 1:   1.998795   1.940164   1.971876   1.000000   0.096921   0.992244
 
      Natural orbitals and occupation numbers for root  4
      sym 1:   1.977020   1.582911   1.363580   1.983675   0.471479   0.621334
 
      Natural orbitals and occupation numbers for root  5
      sym 1:   1.992380   1.465203   1.450355   1.997413   0.550812   0.543838
 
      Natural orbitals and occupation numbers for root  6
      sym 1:   1.990636   1.498250   1.485251   1.998508   0.523338   0.504018
 
      ************************************************************************************************************************
      *                                                                                                                      *
      *                                                    Final results                                                     *
      *                                                                                                                      *
      ************************************************************************************************************************
 
 
++    Wave function specifications:
      -----------------------------
 
      Number of closed shell electrons          10
      Number of electrons in active shells       8
      Max number of holes in RAS1 space          0
      Max nr of electrons in RAS3 space          0
      Number of inactive orbitals                5
      Number of active orbitals                  6
      Number of secondary orbitals              17
      Spin quantum number                      0.0
      State symmetry                             1
--
 
++    Orbital specifications:
      -----------------------
 
      Symmetry species                           1
                                                 a
      Frozen orbitals                            0
      Inactive orbitals                          5
      Active orbitals                            6
      RAS1 orbitals                              0
      RAS2 orbitals                              6
      RAS3 orbitals                              0
      Secondary orbitals                        17
      Deleted orbitals                           0
      Number of basis functions                 28
--
 
++    CI expansion specifications:
      ----------------------------
 
      Number of CSFs                           105
      Number of determinants                   120
      Number of root(s) required                 6
      CI roots used                              1     2     3     4     5     6
      weights                                0.167 0.167 0.167 0.167 0.167 0.167
      highest root included in the CI            6
      Root passed to geometry opt.               6
--
 
++    Final optimization conditions:
      ------------------------------
 
      Average CI energy                            -398.44309036
      RASSCF energy for state  6                   -398.28241994
      Super-CI energy                                -0.00000000
      RASSCF energy change                           -0.00000000
      Max change in MO coefficients               0.167E-04
      Max non-diagonal density matrix element     0.687E-05
      Maximum BLB matrix element                 -0.279E-05
      (orbital pair   9,  12 in symmetry   1)
      Norm of electronic gradient            0.933E-01
--
 
 
      Final state energy(ies):
      ------------------------
 
::    RASSCF root number  1 Total energy:   -398.69153586
::    RASSCF root number  2 Total energy:   -398.50820091
::    RASSCF root number  3 Total energy:   -398.47857715
::    RASSCF root number  4 Total energy:   -398.35192658
::    RASSCF root number  5 Total energy:   -398.34588174
::    RASSCF root number  6 Total energy:   -398.28241994
      Von Neumann Entropy (Root   1) =  0.27651
 

      Mulliken population analysis for root number:  1
      -----------------------------------------------
 
 
++    Molecular charges:
      ------------------
 
      Mulliken charges per centre
      ---------------------------
 
                S1      H2      H3    
      Total   16.1051  0.9475  0.9475
 
      N-E     -0.1051  0.0525  0.0525
 
      Total electronic charge=   18.000000
 
      Total            charge=   -0.000000
--
 
 

      Expectation values of various properties for root number:  1
      -----------------------------------------------------------
 
 
++    Molecular properties:
      ---------------------
 
      Charge (e):
                      =   -0.0000
      Dipole Moment (Debye):
      Origin of the operator (Ang)=    0.0000    0.0000    0.0000
                   X= -3.8788E-03               Y=  3.2879E-05               Z=  9.1921E-01           Total=  9.1922E-01
      Quadrupole Moment (Debye*Ang):
      Origin of the operator (Ang)=   -0.0003    0.0000    0.0709
                  XX= -1.6706E+01              XY=  1.7598E-02              XZ= -1.5502E-02              YY= -1.3273E+01
                  YZ=  6.1326E-05              ZZ= -1.3041E+01
      In traceless form (Debye*Ang)
                  XX= -3.5493E+00              XY=  2.6396E-02              XZ= -2.3253E-02              YY=  1.6004E+00
                  YZ=  9.1990E-05              ZZ=  1.9490E+00
--
 
      Von Neumann Entropy (Root   2) =  1.17889
 

      Mulliken population analysis for root number:  2
      -----------------------------------------------
 
 
++    Molecular charges:
      ------------------
 
      Mulliken charges per centre
      ---------------------------
 
                S1      H2      H3    
      Total   15.9281  1.0359  1.0360
 
      N-E      0.0719 -0.0359 -0.0360
 
      Total electronic charge=   18.000000
 
      Total            charge=   -0.000000
--
 
 

      Expectation values of various properties for root number:  2
      -----------------------------------------------------------
 
 
++    Molecular properties:
      ---------------------
 
      Charge (e):
                      =   -0.0000
      Dipole Moment (Debye):
      Origin of the operator (Ang)=    0.0000    0.0000    0.0000
                   X=  7.7897E-05               Y=  5.3003E-04               Z= -1.9423E-02           Total=  1.9430E-02
      Quadrupole Moment (Debye*Ang):
      Origin of the operator (Ang)=   -0.0003    0.0000    0.0709
                  XX= -1.4008E+01              XY= -1.4700E-02              XZ=  1.0194E-02              YY= -1.6871E+01
                  YZ=  1.2831E-03              ZZ= -1.6416E+01
      In traceless form (Debye*Ang)
                  XX=  2.6357E+00              XY= -2.2050E-02              XZ=  1.5291E-02              YY= -1.6590E+00
                  YZ=  1.9247E-03              ZZ= -9.7673E-01
--
 
      Von Neumann Entropy (Root   3) =  1.27685
 

      Mulliken population analysis for root number:  3
      -----------------------------------------------
 
 
++    Molecular charges:
      ------------------
 
      Mulliken charges per centre
      ---------------------------
 
                S1      H2      H3    
      Total   15.8158  1.0922  1.0921
 
      N-E      0.1842 -0.0922 -0.0921
 
      Total electronic charge=   18.000000
 
      Total            charge=   -0.000000
--
 
 

      Expectation values of various properties for root number:  3
      -----------------------------------------------------------
 
 
++    Molecular properties:
      ---------------------
 
      Charge (e):
                      =   -0.0000
      Dipole Moment (Debye):
      Origin of the operator (Ang)=    0.0000    0.0000    0.0000
                   X=  5.0428E-03               Y= -5.5835E-04               Z= -1.1944E+00           Total=  1.1944E+00
      Quadrupole Moment (Debye*Ang):
      Origin of the operator (Ang)=   -0.0003    0.0000    0.0709
                  XX= -1.4459E+01              XY= -1.2703E-02              XZ=  1.8547E-02              YY= -1.6936E+01
                  YZ= -1.4912E-03              ZZ= -1.8845E+01
      In traceless form (Debye*Ang)
                  XX=  3.4312E+00              XY= -1.9054E-02              XZ=  2.7821E-02              YY= -2.8325E-01
                  YZ= -2.2368E-03              ZZ= -3.1479E+00
--
 
      Von Neumann Entropy (Root   4) =  1.68743
 

      Mulliken population analysis for root number:  4
      -----------------------------------------------
 
 
++    Molecular charges:
      ------------------
 
      Mulliken charges per centre
      ---------------------------
 
                S1      H2      H3    
      Total   16.0051  0.9972  0.9977
 
      N-E     -0.0051  0.0028  0.0023
 
      Total electronic charge=   18.000000
 
      Total            charge=   -0.000000
--
 
 

      Expectation values of various properties for root number:  4
      -----------------------------------------------------------
 
 
++    Molecular properties:
      ---------------------
 
      Charge (e):
                      =   -0.0000
      Dipole Moment (Debye):
      Origin of the operator (Ang)=    0.0000    0.0000    0.0000
                   X=  1.6100E-03               Y=  2.1130E-03               Z= -3.7514E-01           Total=  3.7515E-01
      Quadrupole Moment (Debye*Ang):
      Origin of the operator (Ang)=   -0.0003    0.0000    0.0709
                  XX= -1.7069E+01              XY=  7.2197E-03              XZ= -4.6499E-03              YY= -1.5655E+01
                  YZ=  5.8940E-03              ZZ= -1.5962E+01
      In traceless form (Debye*Ang)
                  XX= -1.2610E+00              XY=  1.0830E-02              XZ= -6.9749E-03              YY=  8.6080E-01
                  YZ=  8.8410E-03              ZZ=  4.0022E-01
--
 
      Von Neumann Entropy (Root   5) =  1.69563
 

      Mulliken population analysis for root number:  5
      -----------------------------------------------
 
 
++    Molecular charges:
      ------------------
 
      Mulliken charges per centre
      ---------------------------
 
                S1      H2      H3    
      Total   16.0417  0.9794  0.9789
 
      N-E     -0.0417  0.0206  0.0211
 
      Total electronic charge=   18.000000
 
      Total            charge=   -0.000000
--
 
 

      Expectation values of various properties for root number:  5
      -----------------------------------------------------------
 
 
++    Molecular properties:
      ---------------------
 
      Charge (e):
                      =   -0.0000
      Dipole Moment (Debye):
      Origin of the operator (Ang)=    0.0000    0.0000    0.0000
                   X=  3.5724E-05               Y= -2.1452E-03               Z= -8.0917E-03           Total=  8.3713E-03
      Quadrupole Moment (Debye*Ang):
      Origin of the operator (Ang)=   -0.0003    0.0000    0.0709
                  XX= -1.7106E+01              XY=  9.0185E-03              XZ= -4.9906E-03              YY= -1.5351E+01
                  YZ= -5.9106E-03              ZZ= -1.5933E+01
      In traceless form (Debye*Ang)
                  XX= -1.4647E+00              XY=  1.3528E-02              XZ= -7.4859E-03              YY=  1.1691E+00
                  YZ= -8.8659E-03              ZZ=  2.9559E-01
--
 
      Von Neumann Entropy (Root   6) =  1.64602
 

      Mulliken population analysis for root number:  6
      -----------------------------------------------
 
 
++    Molecular charges:
      ------------------
 
      Mulliken charges per centre
      ---------------------------
 
                S1      H2      H3    
      Total   16.0055  0.9973  0.9973
 
      N-E     -0.0055  0.0027  0.0027
 
      Total electronic charge=   18.000000
 
      Total            charge=   -0.000000
--
 
 

      Expectation values of various properties for root number:  6
      -----------------------------------------------------------
 
 
++    Molecular properties:
      ---------------------
 
      Charge (e):
                      =   -0.0000
      Dipole Moment (Debye):
      Origin of the operator (Ang)=    0.0000    0.0000    0.0000
                   X= -1.5307E-03               Y=  5.7417E-05               Z=  3.6485E-01           Total=  3.6485E-01
      Quadrupole Moment (Debye*Ang):
      Origin of the operator (Ang)=   -0.0003    0.0000    0.0709
                  XX= -1.7067E+01              XY=  9.3034E-03              XZ= -5.4822E-03              YY= -1.5251E+01
                  YZ=  2.9478E-04              ZZ= -1.5770E+01
      In traceless form (Debye*Ang)
                  XX= -1.5569E+00              XY=  1.3955E-02              XZ= -8.2233E-03              YY=  1.1677E+00
                  YZ=  4.4217E-04              ZZ=  3.8917E-01
--
 
 
      Input file to MOLDEN was generated!
 
 
      Input file to MOLDEN was generated!
 
 
      Input file to MOLDEN was generated!
 
 
      Input file to MOLDEN was generated!
 
 
      Input file to MOLDEN was generated!
 
 
      Input file to MOLDEN was generated!
 
 
      Input file to MOLDEN was generated!
 
      Average orbitals are written to the RASORB file
      Natural orbitals for root   1 are written to the RASORB.1 file
      Natural orbitals for root   2 are written to the RASORB.2 file
      Natural orbitals for root   3 are written to the RASORB.3 file
      Natural orbitals for root   4 are written to the RASORB.4 file
      Natural orbitals for root   5 are written to the RASORB.5 file
      Natural orbitals for root   6 are written to the RASORB.6 file
      Spin density orbitals for root   1 are written to the SPDORB.1 file
      Spin density orbitals for root   2 are written to the SPDORB.2 file
      Spin density orbitals for root   3 are written to the SPDORB.3 file
      Spin density orbitals for root   4 are written to the SPDORB.4 file
      Spin density orbitals for root   5 are written to the SPDORB.5 file
      Spin density orbitals for root   6 are written to the SPDORB.6 file
 
--- Stop Module: rasscf at Fri Mar 22 12:43:02 2024 /rc=_RC_ALL_IS_WELL_ ---
--- Module rasscf spent 2 seconds ---

>>> COPY MOLCAS.rasscf.molden MOLCAS.1.molden

*** symbolic link created: INPORB -> MOLCAS.RasOrb
--- Start Module: caspt2 at Fri Mar 22 12:43:02 2024 ---
 
()()()()()()()()()()()()()()()()()()()()()()()()()()()()()()()()()()()()()()()()()()()()()()()()()()

                                              &CASPT2

                                   only a single process is used
                       available to each process: 10 GB of memory, 1 thread?
                                            pid: 1883118
()()()()()()()()()()()()()()()()()()()()()()()()()()()()()()()()()()()()()()()()()()()()()()()()()()
 
 
++    Wave function specifications:
      -----------------------------
 
      Number of closed shell electrons           0
      Number of electrons in active shells       8
      Max number of holes in RAS1 space          0
      Max number of electrons in RAS3 space      0
      Number of inactive orbitals                0
      Number of active orbitals                  6
      Number of secondary orbitals              17
      Spin quantum number                      0.0
      State symmetry                             1
      Number of CSFs                           105
      Number of CASSCF root(s) available         6
      CASPT2 state passed to geometry opt.       6
      A file JOBMIX will be created
      This is a MULTI-STATE CASSCF reference
      Number of CI roots used                    6
      These are:                                 1   2   3   4   5   6
      Heff is assumed diagonal
--
 
++    Orbital specifications:
      -----------------------
 
      Symmetry species                           1
                                                 a
      Frozen orbitals                            5
      Inactive orbitals                          0
      Active orbitals                            6
      Secondary orbitals                        17
      Deleted orbitals                           0
      Number of basis functions                 28
--
 
++    CASPT2 specifications:
      ----------------------
 
      Type of calculation                        SS-CASPT2
      Fock operator                              state-specific
      IPEA shift                                 0.25
      Real shift                                 0.00
      Imaginary shift                            0.00
      The input orbitals will be transformed to quasi-canonical
--
 
--------------------------------------------------------------------------------
 Estimated memory requirements:
  POLY3 :                   257654
  RHS:                      259460
  SIGMA :                   264688
  PRPCTL:                        0
 Available workspace:   1124990458
 
++ CASPT2 computation for group   1
 
********************************************************************************
 Multi-State initialization phase begins for group   1
--------------------------------------------------------------------------------
********************************************************************************
 Compute H0 matrices for state    1
--------------------------------------------------------------------------------
--------------------------------------------------------------------------------
 H0 matrices have been computed.
 
********************************************************************************
  CASPT2 EQUATION SOLUTION
--------------------------------------------------------------------------------
 
  Total nr of CASPT2 parameters:
   Before reduction:        8925
   After  reduction:        8466
 
 Variance of |WF0>:       0.3241216843
 
 The contributions to the second order correlation energy in atomic units.
-----------------------------------------------------------------------------------------------------------------------------
  IT.      VJTU        VJTI        ATVX        AIVX        VJAI        BVAT        BJAT        BJAI        TOTAL       RNORM  
-----------------------------------------------------------------------------------------------------------------------------
   1     0.000000    0.000000   -0.042943    0.000000    0.000000   -0.083522    0.000000    0.000000   -0.126465    0.000548
   2     0.000000    0.000000   -0.042999    0.000000    0.000000   -0.083522    0.000000    0.000000   -0.126521    0.000019
-----------------------------------------------------------------------------------------------------------------------------
 
  FINAL CASPT2 RESULT:
 
      Reference energy:        -398.6915358565
      E2 (Non-variational):      -0.1265218682
      E2 (Variational):          -0.1265218334
      Total energy:            -398.8180576899
      Residual norm:              0.0000006573
      Reference weight:           0.95013
 
      Contributions to the CASPT2 correlation energy
      Active & Virtual Only:         -0.1265218682
      One Inactive Excited:           0.0000000000
      Two Inactive Excited:           0.0000000000
 
 
++ Denominators, etc.
--------------------------------------------------------------------------------------------------------------
 Report on small energy denominators, large coefficients, and large energy contributions.
CASE  SYMM ACTIVE-MIX  NON-ACTIVE INDICES          DENOMINATOR     RHS VALUE       COEFFICIENT     CONTRIBUTION
ATVX     1  Mu1.0019  Se1.013                       1.70178989     -0.06771032      0.03869282     -0.00261990
ATVX     1  Mu1.0013  Se1.015                       1.69834968      0.05530978     -0.03120250     -0.00172580
ATVX     1  Mu1.0016  Se1.016                       1.83067018     -0.06574996      0.03569565     -0.00234699
ATVX     1  Mu1.0013  Se1.018                       1.78840567      0.04638275     -0.02548708     -0.00118216
ATVX     1  Mu1.0026  Se1.018                       2.22956684      0.05880463     -0.02594201     -0.00152551
ATVX     1  Mu1.0007  Se1.019                       1.75236003     -0.04590644      0.02602378     -0.00119466
ATVX     1  Mu1.0009  Se1.019                       1.76599001      0.05375197     -0.03032874     -0.00163023
ATVX     1  Mu1.0024  Se1.019                       2.21358965      0.05837439     -0.02604436     -0.00152032
BVATP    1  Mu1.0005  Se1.013 Se1.012               2.05321354     -0.05265625      0.02516509     -0.00132510
BVATP    1  Mu1.0001  Se1.015 Se1.015               2.15251931     -0.07371359      0.03415184     -0.00251745
BVATP    1  Mu1.0006  Se1.016 Se1.016               2.47408008     -0.06908212      0.02790970     -0.00192806
BVATP    1  Mu1.0001  Se1.018 Se1.018               2.33263129     -0.07502779      0.03216187     -0.00241303
BVATP    1  Mu1.0001  Se1.019 Se1.019               2.35674617     -0.07593890      0.03222193     -0.00244690
BVATM    1  Mu1.0001  Se1.015 Se1.014               2.22176692     -0.06345316      0.02784745     -0.00176701
BVATM    1  Mu1.0001  Se1.018 Se1.013               2.21395291      0.08152556     -0.03626037     -0.00295615
BVATM    1  Mu1.0002  Se1.019 Se1.013               2.23362589     -0.06306314      0.02788316     -0.00175840
BVATM    1  Mu1.0002  Se1.019 Se1.016               2.40503423     -0.06851404      0.02841815     -0.00194704
BVATM    1  Mu1.0002  Se1.020 Se1.019               2.46603111      0.06218682     -0.02557001     -0.00159012
--
 
   (Skipping property calculation,
    use PROP keyword to activate)
--
 
++ CASPT2 computation for group   2
 
********************************************************************************
 Multi-State initialization phase begins for group   2
--------------------------------------------------------------------------------
********************************************************************************
 Compute H0 matrices for state    2
--------------------------------------------------------------------------------
--------------------------------------------------------------------------------
 H0 matrices have been computed.
 
********************************************************************************
  CASPT2 EQUATION SOLUTION
--------------------------------------------------------------------------------
 
  Total nr of CASPT2 parameters:
   Before reduction:        8925
   After  reduction:        7820
 
 Variance of |WF0>:       0.3231079019
 
 The contributions to the second order correlation energy in atomic units.
-----------------------------------------------------------------------------------------------------------------------------
  IT.      VJTU        VJTI        ATVX        AIVX        VJAI        BVAT        BJAT        BJAI        TOTAL       RNORM  
-----------------------------------------------------------------------------------------------------------------------------
   1     0.000000    0.000000   -0.051737    0.000000    0.000000   -0.078769    0.000000    0.000000   -0.130506    0.000503
   2     0.000000    0.000000   -0.051788    0.000000    0.000000   -0.078772    0.000000    0.000000   -0.130560    0.000020
-----------------------------------------------------------------------------------------------------------------------------
 
  FINAL CASPT2 RESULT:
 
      Reference energy:        -398.5082009086
      E2 (Non-variational):      -0.1305614630
      E2 (Variational):          -0.1305614174
      Total energy:            -398.6387623259
      Residual norm:              0.0000006909
      Reference weight:           0.94549
 
      Contributions to the CASPT2 correlation energy
      Active & Virtual Only:         -0.1305614630
      One Inactive Excited:           0.0000000000
      Two Inactive Excited:           0.0000000000
 
 
++ Denominators, etc.
--------------------------------------------------------------------------------------------------------------
 Report on small energy denominators, large coefficients, and large energy contributions.
CASE  SYMM ACTIVE-MIX  NON-ACTIVE INDICES          DENOMINATOR     RHS VALUE       COEFFICIENT     CONTRIBUTION
ATVX     1  Mu1.0026  Se1.013                       1.63683166     -0.08076205      0.04920860     -0.00397419
ATVX     1  Mu1.0027  Se1.016                       1.80909933      0.06463150     -0.03582262     -0.00231527
ATVX     1  Mu1.0046  Se1.018                       2.18727032      0.05897899     -0.02686006     -0.00158418
ATVX     1  Mu1.0048  Se1.019                       2.23658796     -0.06138924      0.02735301     -0.00167918
ATVX     1  Mu1.0008  Se1.020                       1.36095961      0.04506389     -0.03287551     -0.00148150
ATVX     1  Mu1.0009  Se1.021                       1.67148019     -0.07908642      0.04705540     -0.00372144
ATVX     1  Mu1.0008  Se1.022                       1.67546777      0.06660777     -0.03945048     -0.00262771
BVATP    1  Mu1.0008  Se1.016 Se1.016               2.50621756     -0.07142520      0.02846391     -0.00203304
BVATM    1  Mu1.0005  Se1.016 Se1.012               2.26599049      0.05942819     -0.02609546     -0.00155081
BVATM    1  Mu1.0003  Se1.018 Se1.013               2.18912873      0.06577887     -0.02970698     -0.00195409
--
 
   (Skipping property calculation,
    use PROP keyword to activate)
--
 
++ CASPT2 computation for group   3
 
********************************************************************************
 Multi-State initialization phase begins for group   3
--------------------------------------------------------------------------------
********************************************************************************
 Compute H0 matrices for state    3
--------------------------------------------------------------------------------
--------------------------------------------------------------------------------
 H0 matrices have been computed.
 
********************************************************************************
  CASPT2 EQUATION SOLUTION
--------------------------------------------------------------------------------
 
  Total nr of CASPT2 parameters:
   Before reduction:        8925
   After  reduction:        7820
 
 Variance of |WF0>:       0.3174027846
 
 The contributions to the second order correlation energy in atomic units.
-----------------------------------------------------------------------------------------------------------------------------
  IT.      VJTU        VJTI        ATVX        AIVX        VJAI        BVAT        BJAT        BJAI        TOTAL       RNORM  
-----------------------------------------------------------------------------------------------------------------------------
   1     0.000000    0.000000   -0.052528    0.000000    0.000000   -0.078976    0.000000    0.000000   -0.131504    0.000643
   2     0.000000    0.000000   -0.052589    0.000000    0.000000   -0.078996    0.000000    0.000000   -0.131585    0.000023
-----------------------------------------------------------------------------------------------------------------------------
 
  FINAL CASPT2 RESULT:
 
      Reference energy:        -398.4785771535
      E2 (Non-variational):      -0.1315864851
      E2 (Variational):          -0.1315864335
      Total energy:            -398.6101635869
      Residual norm:              0.0000008294
      Reference weight:           0.94163
 
      Contributions to the CASPT2 correlation energy
      Active & Virtual Only:         -0.1315864851
      One Inactive Excited:           0.0000000000
      Two Inactive Excited:           0.0000000000
 
 
++ Denominators, etc.
--------------------------------------------------------------------------------------------------------------
 Report on small energy denominators, large coefficients, and large energy contributions.
CASE  SYMM ACTIVE-MIX  NON-ACTIVE INDICES          DENOMINATOR     RHS VALUE       COEFFICIENT     CONTRIBUTION
ATVX     1  Mu1.0001  Se1.013                       0.55820871     -0.03291689      0.05820928     -0.00191607
ATVX     1  Mu1.0009  Se1.013                       1.17280068     -0.02958166      0.02514077     -0.00074371
ATVX     1  Mu1.0027  Se1.013                       1.65499000      0.06770380     -0.04058721     -0.00274791
ATVX     1  Mu1.0038  Se1.013                       1.75822255      0.04834677     -0.02709654     -0.00131003
ATVX     1  Mu1.0001  Se1.014                       0.61811121      0.01644362     -0.02526954     -0.00041552
ATVX     1  Mu1.0030  Se1.016                       1.81813895      0.05866687     -0.03236774     -0.00189891
ATVX     1  Mu1.0034  Se1.017                       1.88340893      0.05517651     -0.02885105     -0.00159190
ATVX     1  Mu1.0002  Se1.018                       0.99518551      0.03091246     -0.02978394     -0.00092069
ATVX     1  Mu1.0051  Se1.018                       2.23477646     -0.06175775      0.02754521     -0.00170113
ATVX     1  Mu1.0048  Se1.019                       2.19033145      0.06630452     -0.03014727     -0.00199890
ATVX     1  Mu1.0027  Se1.020                       1.85965718      0.06598190     -0.03536088     -0.00233318
ATVX     1  Mu1.0009  Se1.022                       1.69180484     -0.05333254      0.03108041     -0.00165760
BVATP    1  Mu1.0008  Se1.014 Se1.014               2.29958619     -0.05921045      0.02551461     -0.00151073
BVATP    1  Mu1.0008  Se1.018 Se1.018               2.52932556     -0.06527294      0.02586756     -0.00168845
BVATM    1  Mu1.0005  Se1.016 Se1.012               2.23442694      0.06319008     -0.02793184     -0.00176502
BVATM    1  Mu1.0004  Se1.018 Se1.013               2.20071954     -0.06698029      0.02992595     -0.00200445
BVATM    1  Mu1.0003  Se1.019 Se1.016               2.33292708      0.05894473     -0.02522726     -0.00148701
--
 
   (Skipping property calculation,
    use PROP keyword to activate)
--
 
++ CASPT2 computation for group   4
 
********************************************************************************
 Multi-State initialization phase begins for group   4
--------------------------------------------------------------------------------
********************************************************************************
 Compute H0 matrices for state    4
--------------------------------------------------------------------------------
--------------------------------------------------------------------------------
 H0 matrices have been computed.
 
********************************************************************************
  CASPT2 EQUATION SOLUTION
--------------------------------------------------------------------------------
 
  Total nr of CASPT2 parameters:
   Before reduction:        8925
   After  reduction:        8466
 
 Variance of |WF0>:       0.3159464439
 
 The contributions to the second order correlation energy in atomic units.
-----------------------------------------------------------------------------------------------------------------------------
  IT.      VJTU        VJTI        ATVX        AIVX        VJAI        BVAT        BJAT        BJAI        TOTAL       RNORM  
-----------------------------------------------------------------------------------------------------------------------------
   1     0.000000    0.000000   -0.049471    0.000000    0.000000   -0.086304    0.000000    0.000000   -0.135775    0.000577
   2     0.000000    0.000000   -0.049519    0.000000    0.000000   -0.086331    0.000000    0.000000   -0.135850    0.000020
-----------------------------------------------------------------------------------------------------------------------------
 
  FINAL CASPT2 RESULT:
 
      Reference energy:        -398.3519265788
      E2 (Non-variational):      -0.1358513818
      E2 (Variational):          -0.1358513266
      Total energy:            -398.4877779054
      Residual norm:              0.0000007125
      Reference weight:           0.93847
 
      Contributions to the CASPT2 correlation energy
      Active & Virtual Only:         -0.1358513818
      One Inactive Excited:           0.0000000000
      Two Inactive Excited:           0.0000000000
 
 
++ Denominators, etc.
--------------------------------------------------------------------------------------------------------------
 Report on small energy denominators, large coefficients, and large energy contributions.
CASE  SYMM ACTIVE-MIX  NON-ACTIVE INDICES          DENOMINATOR     RHS VALUE       COEFFICIENT     CONTRIBUTION
ATVX     1  Mu1.0015  Se1.013                       1.06010622      0.02729360     -0.02580398     -0.00070428
ATVX     1  Mu1.0019  Se1.013                       1.09163195      0.04418407     -0.03968250     -0.00175333
ATVX     1  Mu1.0011  Se1.016                       1.18451265      0.03379729     -0.02815315     -0.00095150
ATVX     1  Mu1.0003  Se1.017                       0.70198128      0.01918588     -0.02654253     -0.00050924
ATVX     1  Mu1.0021  Se1.018                       1.32020649      0.04009802     -0.03027682     -0.00121404
ATVX     1  Mu1.0050  Se1.018                       1.93465801     -0.05342374      0.02759685     -0.00147433
ATVX     1  Mu1.0043  Se1.019                       1.84887031      0.05815927     -0.03144074     -0.00182857
ATVX     1  Mu1.0007  Se1.021                       1.46934615     -0.05233039      0.03566987     -0.00186662
ATVX     1  Mu1.0022  Se1.021                       1.61899352     -0.06898261      0.04230329     -0.00291819
BVATP    1  Mu1.0006  Se1.015 Se1.015               2.15489219      0.07353074     -0.03412371     -0.00250914
BVATP    1  Mu1.0006  Se1.018 Se1.018               2.31636943      0.07579888     -0.03271662     -0.00247988
BVATP    1  Mu1.0006  Se1.019 Se1.019               2.34383350      0.07492138     -0.03196532     -0.00239489
BVATM    1  Mu1.0004  Se1.018 Se1.013               2.21468594      0.07147024     -0.03209561     -0.00229388
BVATM    1  Mu1.0005  Se1.019 Se1.013               2.23070419      0.05741376     -0.02555670     -0.00146731
BVATM    1  Mu1.0005  Se1.019 Se1.016               2.38729790      0.06731862     -0.02817297     -0.00189657
--
 
   (Skipping property calculation,
    use PROP keyword to activate)
--
 
++ CASPT2 computation for group   5
 
********************************************************************************
 Multi-State initialization phase begins for group   5
--------------------------------------------------------------------------------
********************************************************************************
 Compute H0 matrices for state    5
--------------------------------------------------------------------------------
--------------------------------------------------------------------------------
 H0 matrices have been computed.
 
********************************************************************************
  CASPT2 EQUATION SOLUTION
--------------------------------------------------------------------------------
 
  Total nr of CASPT2 parameters:
   Before reduction:        8925
   After  reduction:        8466
 
 Variance of |WF0>:       0.3230522871
 
 The contributions to the second order correlation energy in atomic units.
-----------------------------------------------------------------------------------------------------------------------------
  IT.      VJTU        VJTI        ATVX        AIVX        VJAI        BVAT        BJAT        BJAI        TOTAL       RNORM  
-----------------------------------------------------------------------------------------------------------------------------
   1     0.000000    0.000000   -0.059524    0.000000    0.000000   -0.083124    0.000000    0.000000   -0.142648    0.000568
   2     0.000000    0.000000   -0.059586    0.000000    0.000000   -0.083141    0.000000    0.000000   -0.142727    0.000023
-----------------------------------------------------------------------------------------------------------------------------
 
  FINAL CASPT2 RESULT:
 
      Reference energy:        -398.3458817360
      E2 (Non-variational):      -0.1427285937
      E2 (Variational):          -0.1427285264
      Total energy:            -398.4886102623
      Residual norm:              0.0000008162
      Reference weight:           0.93157
 
      Contributions to the CASPT2 correlation energy
      Active & Virtual Only:         -0.1427285937
      One Inactive Excited:           0.0000000000
      Two Inactive Excited:           0.0000000000
 
 
++ Denominators, etc.
--------------------------------------------------------------------------------------------------------------
 Report on small energy denominators, large coefficients, and large energy contributions.
CASE  SYMM ACTIVE-MIX  NON-ACTIVE INDICES          DENOMINATOR     RHS VALUE       COEFFICIENT     CONTRIBUTION
ATVX     1  Mu1.0001  Se1.012                       0.44395622      0.01196778     -0.02666565     -0.00031913
ATVX     1  Mu1.0012  Se1.012                       0.96933677      0.02977932     -0.03031638     -0.00090280
ATVX     1  Mu1.0044  Se1.012                       1.61553622      0.04060142     -0.02500502     -0.00101524
ATVX     1  Mu1.0010  Se1.013                       1.02068594      0.03116163     -0.03053669     -0.00095157
ATVX     1  Mu1.0013  Se1.013                       1.03281943      0.02830318     -0.02702089     -0.00076478
ATVX     1  Mu1.0019  Se1.013                       1.07933293      0.05162964     -0.04727289     -0.00244068
ATVX     1  Mu1.0026  Se1.015                       1.60346114     -0.04410750      0.02679090     -0.00118168
ATVX     1  Mu1.0002  Se1.016                       0.67138424      0.04019305     -0.05963422     -0.00239688
ATVX     1  Mu1.0013  Se1.016                       1.19369244      0.03593264     -0.02971562     -0.00106776
ATVX     1  Mu1.0028  Se1.016                       1.67005666     -0.05189929      0.03106096     -0.00161204
ATVX     1  Mu1.0039  Se1.016                       1.76025855     -0.06682915      0.03772194     -0.00252092
ATVX     1  Mu1.0041  Se1.016                       1.77491106     -0.08045085      0.04519454     -0.00363594
ATVX     1  Mu1.0001  Se1.017                       0.68362469      0.02149095     -0.03063998     -0.00065848
ATVX     1  Mu1.0026  Se1.018                       1.68429774     -0.04240272      0.02505033     -0.00106220
ATVX     1  Mu1.0003  Se1.019                       0.72744928     -0.03316611      0.04548522     -0.00150857
ATVX     1  Mu1.0052  Se1.019                       1.94107787      0.05314062     -0.02730602     -0.00145106
ATVX     1  Mu1.0002  Se1.020                       0.73614480      0.02259034     -0.03028873     -0.00068423
ATVX     1  Mu1.0014  Se1.021                       1.52858644      0.05260449     -0.03379171     -0.00177760
ATVX     1  Mu1.0010  Se1.022                       1.55685083     -0.04584119      0.02902294     -0.00133045
BVATP    1  Mu1.0006  Se1.015 Se1.015               2.16188876      0.07394587     -0.03420455     -0.00252929
BVATP    1  Mu1.0006  Se1.018 Se1.018               2.32356197      0.07672072     -0.03301060     -0.00253260
BVATP    1  Mu1.0006  Se1.019 Se1.019               2.35045228      0.07593455     -0.03230636     -0.00245317
BVATM    1  Mu1.0004  Se1.018 Se1.013               2.21076557     -0.07262511      0.03260771     -0.00236814
BVATM    1  Mu1.0005  Se1.019 Se1.016               2.38677181     -0.06197693      0.02595454     -0.00160858
--
 
   (Skipping property calculation,
    use PROP keyword to activate)
--
 
++ CASPT2 computation for group   6
 
********************************************************************************
 Multi-State initialization phase begins for group   6
--------------------------------------------------------------------------------
********************************************************************************
 Compute H0 matrices for state    6
--------------------------------------------------------------------------------
--------------------------------------------------------------------------------
 H0 matrices have been computed.
 
********************************************************************************
  CASPT2 EQUATION SOLUTION
--------------------------------------------------------------------------------
 
  Total nr of CASPT2 parameters:
   Before reduction:        8925
   After  reduction:        8466
 
 Variance of |WF0>:       0.3513951306
 
 The contributions to the second order correlation energy in atomic units.
-----------------------------------------------------------------------------------------------------------------------------
  IT.      VJTU        VJTI        ATVX        AIVX        VJAI        BVAT        BJAT        BJAI        TOTAL       RNORM  
-----------------------------------------------------------------------------------------------------------------------------
   1     0.000000    0.000000   -0.071677    0.000000    0.000000   -0.088772    0.000000    0.000000   -0.160449    0.000522
   2     0.000000    0.000000   -0.071739    0.000000    0.000000   -0.088798    0.000000    0.000000   -0.160537    0.000014
-----------------------------------------------------------------------------------------------------------------------------
 
  FINAL CASPT2 RESULT:
 
      Reference energy:        -398.2824199365
      E2 (Non-variational):      -0.1605373566
      E2 (Variational):          -0.1605373083
      Total energy:            -398.4429572448
      Residual norm:              0.0000004930
      Reference weight:           0.91357
 
      Contributions to the CASPT2 correlation energy
      Active & Virtual Only:         -0.1605373566
      One Inactive Excited:           0.0000000000
      Two Inactive Excited:           0.0000000000
 
 
++ Denominators, etc.
--------------------------------------------------------------------------------------------------------------
 Report on small energy denominators, large coefficients, and large energy contributions.
CASE  SYMM ACTIVE-MIX  NON-ACTIVE INDICES          DENOMINATOR     RHS VALUE       COEFFICIENT     CONTRIBUTION
ATVX     1  Mu1.0001  Se1.012                       0.46533662     -0.03973487      0.08541955     -0.00339413
ATVX     1  Mu1.0006  Se1.012                       0.95539020      0.02894939     -0.03175765     -0.00091936
ATVX     1  Mu1.0012  Se1.012                       1.00989005     -0.03348813      0.03333044     -0.00111617
ATVX     1  Mu1.0003  Se1.013                       0.53760851     -0.05045140      0.09335040     -0.00470966
ATVX     1  Mu1.0003  Se1.016                       0.69905341     -0.05331814      0.07699462     -0.00410521
ATVX     1  Mu1.0030  Se1.016                       1.70431604      0.07286989     -0.04265746     -0.00310844
ATVX     1  Mu1.0035  Se1.016                       1.74849631      0.04804704     -0.02741853     -0.00131738
ATVX     1  Mu1.0048  Se1.016                       1.90532638      0.07047224     -0.03684104     -0.00259627
ATVX     1  Mu1.0001  Se1.017                       0.70761565     -0.02909072      0.04046902     -0.00117727
ATVX     1  Mu1.0002  Se1.019                       0.74422371     -0.04833735      0.06542408     -0.00316243
ATVX     1  Mu1.0025  Se1.019                       1.70337822      0.06955875     -0.04077142     -0.00283601
ATVX     1  Mu1.0010  Se1.021                       1.54755933      0.04532838     -0.02862945     -0.00129773
BVATP    1  Mu1.0006  Se1.015 Se1.015               2.16032472     -0.07400787      0.03425718     -0.00253530
BVATP    1  Mu1.0006  Se1.018 Se1.018               2.32020742     -0.07567725      0.03258220     -0.00246573
BVATP    1  Mu1.0006  Se1.019 Se1.019               2.34629097     -0.07662724      0.03265888     -0.00250256
BVATM    1  Mu1.0004  Se1.015 Se1.014               2.23953775     -0.05659066      0.02501809     -0.00141579
BVATM    1  Mu1.0004  Se1.018 Se1.013               2.21761114      0.07397425     -0.03310240     -0.00244873
BVATM    1  Mu1.0005  Se1.019 Se1.016               2.39989181      0.06385952     -0.02656100     -0.00169617
--
 
   (Skipping property calculation,
    use PROP keyword to activate)
--
 
  Total CASPT2 energies:
::    CASPT2 Root  1     Total energy:   -398.81805769
::    CASPT2 Root  2     Total energy:   -398.63876233
::    CASPT2 Root  3     Total energy:   -398.61016359
::    CASPT2 Root  4     Total energy:   -398.48777791
::    CASPT2 Root  5     Total energy:   -398.48861026
::    CASPT2 Root  6     Total energy:   -398.44295724
 
  A NEW JOBIPH FILE NAMED 'JOBMIX' IS PREPARED.
********************************************************************************
--- Stop Module: caspt2 at Fri Mar 22 12:43:02 2024 /rc=_RC_ALL_IS_WELL_ ---

>>> COPY MOLCAS.JobMix MOLCAS.1.JobIph

>>> COPY /public/manganese/scratch/tmp/sascha.925337/SAVE/MOLCAS.2.JobIph.0 JOBOLD

*** symbolic link created: INPORB -> MOLCAS.RasOrb
--- Start Module: rasscf at Fri Mar 22 12:43:02 2024 ---
 
()()()()()()()()()()()()()()()()()()()()()()()()()()()()()()()()()()()()()()()()()()()()()()()()()()

                                              &RASSCF

                                   only a single process is used
                       available to each process: 10 GB of memory, 1 thread?
                                            pid: 1883121
()()()()()()()()()()()()()()()()()()()()()()()()()()()()()()()()()()()()()()()()()()()()()()()()()()
 
 
      Header of the ONEINT file:
      --------------------------
      
      Integrals generated by Gateway/Seward, Fri Mar 22 12:42:59 2024
 
 
      OrdInt status: non-squared
 
 
      Cartesian coordinates in Angstrom:
      -----------------------------------------------------
      No.  Label        X            Y            Z        
      -----------------------------------------------------
       1   S1         0.00000000   0.00000000   0.00084100
       2   H2         0.00000000   0.97479900   1.18293400
       3   H3        -0.01000000  -0.97479900   1.18293400
      -----------------------------------------------------
      Nuclear repulsion energy =   11.32331568
 
++    Wave function specifications:
      -----------------------------
 
      Number of closed shell electrons          10
      Number of electrons in active shells       7
      Max number of holes in RAS1 space          0
      Max nr of electrons in RAS3 space          0
      Number of inactive orbitals                5
      Number of active orbitals                  6
      Number of secondary orbitals              17
      Spin quantum number                      0.5
      State symmetry                             1
--
 
++    Orbital specifications:
      -----------------------
 
      Symmetry species                           1
                                                 a
      Frozen orbitals                            0
      Inactive orbitals                          5
      Active orbitals                            6
      RAS1 orbitals                              0
      RAS2 orbitals                              6
      RAS3 orbitals                              0
      Secondary orbitals                        17
      Deleted orbitals                           0
      Number of basis functions                 28
--
 
++    CI expansion specifications:
      ----------------------------
 
      Number of CSFs                           210
      Number of determinants                   300
      Number of root(s) required                 4
      Root chosen for geometry opt.              4
      CI roots used                              1     2     3     4
      weights                                0.250 0.250 0.250 0.250
      highest root included in the CI            4
      max. size of the explicit Hamiltonian    200
--
 
++    Optimization specifications:
      ----------------------------
 
      RASSCF algorithm: LK RI/DF
      Maximum number of macro iterations       200
      Maximum number of SX iterations          100
      Threshold for RASSCF energy            0.100E-07
      Threshold for max MO rotation          0.100E-03
      Threshold for max BLB element          0.100E-03
      Level shift parameter                  0.500E+00
      Make Quasi-Newton update
--
 
      The MO-coefficients are taken from the file:
      JOBOLD
      Title:(No title given)                                                        
 
      Total molecular charge    1.00
 
      ************************************************************************************************************************
      *                                                                                                                      *
      *                                            Wave function control section                                             *
      *                                                                                                                      *
      ************************************************************************************************************************
 
 
                                         RASSCF iterations: Energy and convergence statistics
                                         ----------------------------------------------------
 
      Iter CI   SX   CI       RASSCF       Energy    max ROT     max BLB   max BLB  Level Ln srch  Step   QN   Walltime
          iter iter root      energy       change     param      element    value   shift minimum  type update hh:mm:ss
 Nr of preliminary CI iterations:   3
        1   1    4    0  -398.22922163    0.00E+00  -0.66E-03*   7  26 1  0.63E-03*  0.00   0.00    SX    NO    0:00:00
        2   1    3    0  -398.22922335   -0.17E-05*  0.15E-03*   7  17 1 -0.84E-04   0.00   0.00    SX    NO    0:00:00
        3   1    3    0  -398.22922340   -0.52E-07*  0.38E-04    8  17 1  0.21E-04   0.00   0.00    SX    NO    0:00:00
        4   4    3    0  -398.22922384   -0.43E-06*  0.76E-04   10  17 1  0.18E-04   0.00   0.00    SX    NO    0:00:00
        5   1    3    0  -398.22922384   -0.59E-08  -0.46E-04   10  17 1  0.58E-05   0.00   1.36    QN   YES    0:00:00
      Convergence after  5 iterations
        6   3    3    0  -398.22922384   -0.11E-08  -0.46E-04    8  17 1 -0.27E-05   0.00   1.36    QN   YES    0:00:00
 
      ************************************************************************************************************************
                                                      Wave function printout:
                       occupation of active orbitals, and spin coupling of open shells (u,d: Spin up or down)
      ************************************************************************************************************************
 
      Note: transformation to natural orbitals
      has been made, which may change the order of the CSFs.
 
      printout of CI-coefficients larger than  0.10 for root  1
      energy=    -398.367698
      conf/sym  111111     Coeff  Weight
             1  222u00  -0.97372 0.94814
            44  2uduud  -0.10404 0.01082
            56  202u20  -0.10752 0.01156
 
      printout of CI-coefficients larger than  0.10 for root  2
      energy=    -398.233634
      conf/sym  111111     Coeff  Weight
             4  22u200   0.97388 0.94845
           124  20u220   0.10828 0.01172
 
      printout of CI-coefficients larger than  0.10 for root  3
      energy=    -398.220618
      conf/sym  111111     Coeff  Weight
            13  2u2200  -0.96106 0.92364
            41  2ud20u   0.12304 0.01514
            55  2022u0   0.10655 0.01135
 
      printout of CI-coefficients larger than  0.10 for root  4
      energy=    -398.094945
      conf/sym  111111     Coeff  Weight
             2  2220u0  -0.95501 0.91204
            11  22u0ud   0.12521 0.01568
            16  2u2020   0.12953 0.01678
 
      Natural orbitals and occupation numbers for root  1
      sym 1:   1.994887   1.949417   1.958168   1.000000   0.059659   0.037869
 
      Natural orbitals and occupation numbers for root  2
      sym 1:   1.979337   1.938112   1.006422   1.998398   0.047473   0.030259
 
      Natural orbitals and occupation numbers for root  3
      sym 1:   1.986200   1.013666   1.932824   1.981523   0.049383   0.036403
 
      Natural orbitals and occupation numbers for root  4
      sym 1:   1.977378   1.971989   1.951000   0.048802   0.992338   0.058493
 
      ************************************************************************************************************************
      *                                                                                                                      *
      *                                                    Final results                                                     *
      *                                                                                                                      *
      ************************************************************************************************************************
 
 
++    Wave function specifications:
      -----------------------------
 
      Number of closed shell electrons          10
      Number of electrons in active shells       7
      Max number of holes in RAS1 space          0
      Max nr of electrons in RAS3 space          0
      Number of inactive orbitals                5
      Number of active orbitals                  6
      Number of secondary orbitals              17
      Spin quantum number                      0.5
      State symmetry                             1
--
 
++    Orbital specifications:
      -----------------------
 
      Symmetry species                           1
                                                 a
      Frozen orbitals                            0
      Inactive orbitals                          5
      Active orbitals                            6
      RAS1 orbitals                              0
      RAS2 orbitals                              6
      RAS3 orbitals                              0
      Secondary orbitals                        17
      Deleted orbitals                           0
      Number of basis functions                 28
--
 
++    CI expansion specifications:
      ----------------------------
 
      Number of CSFs                           210
      Number of determinants                   300
      Number of root(s) required                 4
      CI roots used                              1     2     3     4
      weights                                0.250 0.250 0.250 0.250
      highest root included in the CI            4
      Root passed to geometry opt.               4
--
 
++    Final optimization conditions:
      ------------------------------
 
      Average CI energy                            -398.22922384
      RASSCF energy for state  4                   -398.09494484
      Super-CI energy                                -0.00000000
      RASSCF energy change                            0.00000000
      Max change in MO coefficients               0.145E-03
      Max non-diagonal density matrix element    -0.457E-04
      Maximum BLB matrix element                 -0.274E-05
      (orbital pair   8,  17 in symmetry   1)
      Norm of electronic gradient            0.802E-01
--
 
 
      Final state energy(ies):
      ------------------------
 
::    RASSCF root number  1 Total energy:   -398.36769819
::    RASSCF root number  2 Total energy:   -398.23363399
::    RASSCF root number  3 Total energy:   -398.22061836
::    RASSCF root number  4 Total energy:   -398.09494484
      Von Neumann Entropy (Root   1) =  0.82907
 

      Mulliken population analysis for root number:  1
      -----------------------------------------------
 
 
++    Molecular charges:
      ------------------
 
      Mulliken charges per centre
      ---------------------------
 
                S1      H2      H3    
      Total   15.4687  0.7656  0.7656
 
      N-E      0.5313  0.2344  0.2344
 
      Total electronic charge=   17.000000
 
      Total            charge=    1.000000
--
 
 

      Expectation values of various properties for root number:  1
      -----------------------------------------------------------
 
 
++    Molecular properties:
      ---------------------
 
      Charge (e):
                      =    1.0000
      Dipole Moment (Debye):
      Origin of the operator (Ang)=    0.0000    0.0000    0.0000
                   X= -1.0650E-02               Y=  6.6642E-06               Z=  2.5258E+00           Total=  2.5259E+00
      Center of Charge (Ang)
                     X=   -0.00221731               Y=    0.00000139               Z=    0.52586745
      Quadrupole Moment (Debye*Ang):
      Origin of the operator (Ang)=   -0.0003    0.0000    0.0709
                  XX= -1.1671E+01              XY=  1.0723E-02              XZ= -1.2031E-02              YY= -9.5838E+00
                  YZ= -8.2113E-06              ZZ= -8.8309E+00
      In traceless form (Debye*Ang)
                  XX= -2.4639E+00              XY=  1.6084E-02              XZ= -1.8046E-02              YY=  6.6723E-01
                  YZ= -1.2317E-05              ZZ=  1.7966E+00
--
 

      Mulliken spin population analysis for root number:  1
      ---------------------------------------------------
 
 
++    Molecular charges:
      ------------------
 
      Mulliken spin population per centre
      ---------------------------
 
                S1      H2      H3    
      Total    1.1013 -0.0507 -0.0507
 
      Total electronic spin=    1.000000
--
 
 
      Von Neumann Entropy (Root   2) =  0.77807
 

      Mulliken population analysis for root number:  2
      -----------------------------------------------
 
 
++    Molecular charges:
      ------------------
 
      Mulliken charges per centre
      ---------------------------
 
                S1      H2      H3    
      Total   15.6234  0.6883  0.6883
 
      N-E      0.3766  0.3117  0.3117
 
      Total electronic charge=   17.000000
 
      Total            charge=    1.000000
--
 
 

      Expectation values of various properties for root number:  2
      -----------------------------------------------------------
 
 
++    Molecular properties:
      ---------------------
 
      Charge (e):
                      =    1.0000
      Dipole Moment (Debye):
      Origin of the operator (Ang)=    0.0000    0.0000    0.0000
                   X= -1.0633E-02               Y= -1.0927E-04               Z=  2.5094E+00           Total=  2.5094E+00
      Center of Charge (Ang)
                     X=   -0.00221376               Y=   -0.00002275               Z=    0.52243434
      Quadrupole Moment (Debye*Ang):
      Origin of the operator (Ang)=   -0.0003    0.0000    0.0709
                  XX= -1.4203E+01              XY=  2.6663E-02              XZ= -3.3785E-02              YY= -9.0084E+00
                  YZ= -3.2040E-04              ZZ= -6.2130E+00
      In traceless form (Debye*Ang)
                  XX= -6.5922E+00              XY=  3.9995E-02              XZ= -5.0678E-02              YY=  1.1995E+00
                  YZ= -4.8060E-04              ZZ=  5.3926E+00
--
 

      Mulliken spin population analysis for root number:  2
      ---------------------------------------------------
 
 
++    Molecular charges:
      ------------------
 
      Mulliken spin population per centre
      ---------------------------
 
                S1      H2      H3    
[...]
     -----------------------------------------------------------------------------------------------
         1    9       1.08225711E-04  1.50290255E+05  4.24779698E+00  2.81517758E+00  1.50297318E+05
         2    7       5.12913510E-03  1.99826802E+00  7.59554329E+04  1.09047440E-04  7.59574313E+04
         3    5       1.17511968E-05  2.27411410E-03  8.64242629E+01  2.61516864E-07  8.64265373E+01
         3    8       5.11513713E-03  1.99501317E+00  7.58288364E+04  2.84522163E-04  7.58308317E+04
         4    6       5.12583192E-03  1.99442366E+00  7.58092185E+04  1.08736102E-04  7.58112130E+04
         5    9       7.60070083E-03  5.26179986E+00  2.00177486E+05  1.90307371E-03  2.00182750E+05
         6   11       2.54350501E-04  3.05887625E+04  8.04242101E-01  5.48002490E-01  3.05901148E+04
         7   12       2.54313327E-04  3.05793876E+04  8.04020004E-01  5.47849357E-01  3.05807395E+04
         8    9       1.99694577E-05  8.37072580E-03  3.18490288E+02  3.42863465E-06  3.18498662E+02
         8   10       2.53248155E-04  3.04339195E+04  8.00195712E-01  5.45228859E-01  3.04352650E+04
        13   15       1.78285925E-03  9.43703581E+05  3.98958753E+01  1.51087511E+01  9.43758585E+05
        13   16       6.60211002E-03  3.49466405E+06  1.12027946E+02  5.84265913E+01  3.49483450E+06
        13   17       1.17866007E-05  7.73973471E+03  7.51315786E+01  2.64890876E+00  7.81751520E+03
        14   15       6.60211002E-03  3.49466405E+06  1.12027946E+02  5.84265913E+01  3.49483450E+06
        14   16       1.78285925E-03  9.43703581E+05  3.98958753E+01  1.51087511E+01  9.43758585E+05
        14   18       1.17866007E-05  7.73973471E+03  7.51315786E+01  2.64890876E+00  7.81751520E+03
        15   17       2.85712147E-04  1.59052133E-01  2.15027516E+03  4.13084428E+00  2.15456506E+03
        15   18       1.34606695E-04  7.89330288E-02  1.00606211E+03  8.93264247E+00  1.01507368E+03
        16   17       1.34606695E-04  7.89330288E-02  1.00606211E+03  8.93264247E+00  1.01507368E+03
        16   18       2.85712147E-04  1.59052133E-01  2.15027516E+03  4.13084428E+00  2.15456506E+03
        19   25       2.74297829E-04  1.05187366E-03  3.98749439E+01  1.19751581E-04  3.98761156E+01
        19   27       5.70954454E-04  2.29136044E+00  2.24346960E+00  1.26718120E+05  1.26722655E+05
        19   28       1.89722283E-05  1.00693285E-01  4.19338111E+03  1.73814653E+01  4.21086327E+03
        19   29       2.25741506E-04  1.30827599E+00  5.00981299E+04  5.32741253E+00  5.01047656E+04
        19   30       7.73632368E-03  3.09495805E+01  1.31495909E+01  1.71708224E+06  1.71712634E+06
        20   26       2.74297829E-04  1.05187366E-03  3.98749439E+01  1.19751580E-04  3.98761156E+01
        20   27       1.89722284E-05  1.00693286E-01  4.19338114E+03  1.73814653E+01  4.21086330E+03
        20   28       5.70954454E-04  2.29136044E+00  2.24346959E+00  1.26718120E+05  1.26722655E+05
        20   29       7.73632368E-03  3.09495805E+01  1.31495907E+01  1.71708224E+06  1.71712634E+06
        20   30       2.25741506E-04  1.30827599E+00  5.00981299E+04  5.32741254E+00  5.01047656E+04
        21   23       2.63876207E-04  9.36389532E-04  3.54972517E+01  1.08714014E-04  3.54982968E+01
        21   27       2.55998849E-05  1.46499597E-01  5.67153247E+03  4.94723976E+00  5.67662621E+03
        21   28       7.88105169E-03  3.14934729E+01  1.31927790E+01  1.74753288E+06  1.74757757E+06
        21   29       5.83758296E-04  2.33443042E+00  1.14622941E+00  1.29445959E+05  1.29449440E+05
        22   24       2.63876207E-04  9.36389532E-04  3.54972517E+01  1.08714014E-04  3.54982968E+01
        22   27       7.88105169E-03  3.14934729E+01  1.31927790E+01  1.74753288E+06  1.74757757E+06
        22   28       2.55998849E-05  1.46499597E-01  5.67153247E+03  4.94723974E+00  5.67662621E+03
        22   30       5.83758296E-04  2.33443042E+00  1.14622942E+00  1.29445959E+05  1.29449440E+05
        23   27       2.03003623E-05  7.43850919E-02  7.69619905E+00  4.27469814E+03  4.28246873E+03
        23   28       1.02855923E-02  5.69713516E+01  2.16973449E+06  8.59902465E+00  2.16980006E+06
        23   29       9.94625296E-04  5.51139826E+00  2.09822674E+05  6.21552858E-01  2.09828807E+05
        24   27       1.02855923E-02  5.69713516E+01  2.16973449E+06  8.59902419E+00  2.16980006E+06
        24   28       2.03003623E-05  7.43850938E-02  7.69619921E+00  4.27469814E+03  4.28246872E+03
        24   30       9.94625295E-04  5.51139825E+00  2.09822674E+05  6.21553324E-01  2.09828807E+05
        25   27       9.78831973E-04  5.42420878E+00  2.06267005E+05  3.21338652E-01  2.06272751E+05
        25   28       1.38673621E-05  4.39186596E-02  2.01439713E+01  2.90213076E+03  2.92231865E+03
        25   29       1.64714826E-04  6.17418489E-01  6.96308569E+00  3.47045774E+04  3.47121579E+04
        25   30       1.00851948E-02  5.58098385E+01  2.12530005E+06  7.62517142E+00  2.12536348E+06
        26   27       1.38673622E-05  4.39186547E-02  2.01439927E+01  2.90213075E+03  2.92231867E+03
        26   28       9.78831973E-04  5.42420878E+00  2.06267005E+05  3.21338768E-01  2.06272751E+05
        26   29       1.00851948E-02  5.58098385E+01  2.12530005E+06  7.62517119E+00  2.12536348E+06
        26   30       1.64714826E-04  6.17418495E-01  6.96308631E+00  3.47045774E+04  3.47121579E+04
     -----------------------------------------------------------------------------------------------
--
 
++ Velocity transition strengths (SO states):
   ------------------------------------------
        for osc. strength at least   1.00000000E-05
 
      From   To        Osc. strength     Einstein coefficients Ax, Ay, Az (sec-1)    Total A (sec-1)
     -----------------------------------------------------------------------------------------------
         1    9       4.16736907E-03  5.78713127E+06  1.53990596E+02  1.04710274E+02  5.78738997E+06
         2    4       3.77135378E-02  2.08914829E-06  7.93948428E-02  7.17551089E-10  7.93969327E-02
         2    7       1.07624991E-02  4.19379146E+00  1.59377799E+05  1.44041588E-03  1.59381995E+05
         3    5       6.23585289E-05  1.20619170E-02  4.58616259E+02  5.25595003E-06  4.58628326E+02
         3    8       1.07260970E-02  4.18406816E+00  1.59007946E+05  1.43553002E-03  1.59012131E+05
         4    6       1.07693558E-02  4.19108884E+00  1.59274914E+05  1.43948567E-03  1.59279107E+05
         5    9       6.89040788E-04  4.83222737E-01  1.81470636E+04  7.04220082E-04  1.81475475E+04
         6    7       5.40381426E-02  1.46845629E-06  5.58046505E-02  5.04345114E-10  5.58061195E-02
         6    8       3.19400209E-05  4.43089342E-04  1.18962536E-08  7.89884753E-09  4.43109137E-04
         6   11       5.99142250E-05  7.20541735E+03  1.92008683E-01  1.28448052E-01  7.20573780E+03
         7   12       6.00092491E-05  7.21568790E+03  1.92287841E-01  1.28632542E-01  7.21600882E+03
         8   10       5.96963199E-05  7.17396149E+03  1.91175086E-01  1.27887436E-01  7.17428055E+03
        10   11       3.89163773E-04  3.18274705E-05  8.47711464E-10  5.67423898E-10  3.18288856E-05
        13   15       3.13876676E-03  1.66143864E+06  4.54142919E+01  2.57232115E+01  1.66150978E+06
        13   16       1.16232914E-02  6.15254966E+06  1.57356362E+02  9.56078053E+01  6.15280263E+06
        13   17       1.63727236E-05  1.08441908E+04  1.48966695E+01  1.94161015E-01  1.08592816E+04
        14   15       1.16232914E-02  6.15254966E+06  1.57356362E+02  9.56078053E+01  6.15280263E+06
        14   16       3.13876676E-03  1.66143864E+06  4.54142919E+01  2.57232115E+01  1.66150978E+06
        14   18       1.63727236E-05  1.08441908E+04  1.48966695E+01  1.94161015E-01  1.08592816E+04
        15   17       4.30489970E-03  1.59264621E+01  3.24474690E+04  2.45525844E-04  3.24633957E+04
        15   18       2.01429418E-03  7.50806304E+00  1.51823530E+04  1.73416603E-04  1.51898612E+04
        16   17       2.01429418E-03  7.50806304E+00  1.51823530E+04  1.73416603E-04  1.51898612E+04
        16   18       4.30489970E-03  1.59264621E+01  3.24474690E+04  2.45525844E-04  3.24633957E+04
        19   21       3.41444367E-04  4.24922188E-07  1.61052399E-02  3.02256603E-09  1.61056678E-02
        19   24       1.85457179E-04  6.83800518E-04  2.58912808E+01  3.54603747E-08  2.58919646E+01
        19   25       1.33691474E-01  5.12420108E-01  1.94349190E+04  5.79182641E-05  1.94354315E+04
        19   27       9.04147013E-04  3.63505992E+00  6.98057647E+00  2.00663728E+05  2.00674343E+05
        19   28       4.64068006E-05  2.52562663E-01  1.02727745E+04  2.69065803E+01  1.02999336E+04
        19   29       5.52800686E-04  3.22538449E+00  1.22686631E+05  7.77823432E+00  1.22697635E+05
        19   30       1.22528448E-02  4.90682667E+01  4.62284210E+01  2.71950168E+06  2.71959698E+06
        20   22       3.41444382E-04  4.24922206E-07  1.61052406E-02  3.02256587E-09  1.61056685E-02
        20   23       1.85457179E-04  6.83800517E-04  2.58912807E+01  3.54606297E-08  2.58919646E+01
        20   26       1.33691474E-01  5.12420108E-01  1.94349190E+04  5.79182640E-05  1.94354315E+04
        20   27       4.64068008E-05  2.52562664E-01  1.02727746E+04  2.69065803E+01  1.02999337E+04
        20   28       9.04147013E-04  3.63505992E+00  6.98057644E+00  2.00663728E+05  2.00674343E+05
        20   29       1.22528448E-02  4.90682667E+01  4.62284205E+01  2.71950168E+06  2.71959698E+06
        20   30       5.52800686E-04  3.22538449E+00  1.22686631E+05  7.77823432E+00  1.22697635E+05
        21   23       1.49897202E-01  5.31670877E-01  2.01645882E+04  1.01485890E-04  2.01651200E+04
        21   26       1.85268342E-04  6.84726294E-04  2.59711863E+01  2.75148776E-08  2.59718710E+01
        21   27       6.27206762E-05  3.62219061E-01  1.38999219E+04  7.66255919E+00  1.39079467E+04
        21   28       1.24934700E-02  4.99747019E+01  4.64016483E+01  2.77025824E+06  2.77035462E+06
        21   29       9.25552298E-04  3.70555049E+00  3.95248513E+00  2.05235210E+05  2.05242868E+05
        22   24       1.49897202E-01  5.31670877E-01  2.01645882E+04  1.01485890E-04  2.01651200E+04
        22   25       1.85268342E-04  6.84726293E-04  2.59711862E+01  2.75149541E-08  2.59718710E+01
        22   27       1.24934700E-02  4.99747019E+01  4.64016484E+01  2.77025824E+06  2.77035462E+06
        22   28       6.27206762E-05  3.62219061E-01  1.38999219E+04  7.66255916E+00  1.39079467E+04
        22   30       9.25552298E-04  3.70555049E+00  3.95248515E+00  2.05235209E+05  2.05242867E+05
        23   25       4.00849446E-04  6.54590834E-07  2.33647550E-02  2.06372102E-10  2.33654098E-02
        23   27       3.38026063E-05  1.22977695E-01  1.93801229E+01  7.11133538E+03  7.13083848E+03
        23   28       2.61606846E-02  1.45736622E+02  5.51858472E+06  4.22432128E+00  5.51873469E+06
        23   29       2.52941085E-03  1.40955901E+01  5.33596960E+05  2.06895608E-01  5.33611263E+05
        24   26       4.00849430E-04  6.54590815E-07  2.33647541E-02  2.06372102E-10  2.33654089E-02
        24   27       2.61606846E-02  1.45736622E+02  5.51858472E+06  4.22432085E+00  5.51873469E+06
        24   28       3.38026063E-05  1.22977699E-01  1.93801235E+01  7.11133536E+03  7.13083846E+03
        24   30       2.52941084E-03  1.40955901E+01  5.33596960E+05  2.06895945E-01  5.33611262E+05
        25   27       2.49182166E-03  1.38838564E+01  5.25096401E+05  1.75485780E-01  5.25110460E+05
        25   28       2.31715914E-05  7.01826581E-02  5.05503884E+01  4.83241149E+03  4.88303206E+03
        25   29       2.74298758E-04  1.02648536E+00  1.74153149E+01  5.77875374E+04  5.78059792E+04
        25   30       2.56704371E-02  1.42871352E+02  5.40966608E+06  3.18479152E+00  5.40981214E+06
        26   27       2.31715917E-05  7.01826482E-02  5.05504426E+01  4.83241148E+03  4.88303211E+03
        26   28       2.49182166E-03  1.38838564E+01  5.25096401E+05  1.75485831E-01  5.25110461E+05
        26   29       2.56704371E-02  1.42871352E+02  5.40966608E+06  3.18479133E+00  5.40981213E+06
        26   30       2.74298758E-04  1.02648538E+00  1.74153170E+01  5.77875374E+04  5.78059792E+04
        27   29       2.17734327E-03  3.78893472E-09  1.40635812E-04  1.83050989E-08  1.40657906E-04
        28   30       2.17734327E-03  3.78893472E-09  1.40635812E-04  1.83050990E-08  1.40657906E-04
     -----------------------------------------------------------------------------------------------
--
 
++ Length and velocity gauge comparison (SO states):
 
 --------------------------------------------------
 A comparison between the dipole oscillator strengths in 
 length and velocity gauge will be performed
 
     All dipole oscillator differences above the tolerance of   1.00000000E-01  will be printed 
 
 Due to basis set deficiency these oscillator may be problematic 
 
 The tolerance is defined as ABS(1-O_l/O_v) 
 O_l : dipole oscillator strength in length gauge
 O_p : dipole oscillator strength in velocity gauge
 --------------------------------------------------
 
  Problematic transitions have been found
 
      From   To       Difference (%) Osc. st. (len.) Osc. st. (vel.)
     ---------------------------------------------------------------
         1    9            97.403021  1.08225711E-04  4.16736907E-03
         2    4      --------------- below threshold  3.77135378E-02
         2    7            52.342527  5.12913510E-03  1.07624991E-02
         3    5            81.155430  1.17511968E-05  6.23585289E-05
         3    8            52.311292  5.11513713E-03  1.07260970E-02
         4    6            52.403542  5.12583192E-03  1.07693558E-02
         5    9          1003.084310  7.60070083E-03  6.89040788E-04
         6    7      --------------- below threshold  5.40381426E-02
         6    8      --------------- below threshold  3.19400209E-05
         6   11           324.524395  2.54350501E-04  5.99142250E-05
         7   12           323.790217  2.54313327E-04  6.00092491E-05
         8    9      ---------------  1.99694577E-05 below threshold
         8   10           324.227415  2.53248155E-04  5.96963199E-05
        10   11      --------------- below threshold  3.89163773E-04
        13   15            43.198734  1.78285925E-03  3.13876676E-03
        13   16            43.199307  6.60211002E-03  1.16232914E-02
        13   17            28.010752  1.17866007E-05  1.63727236E-05
        14   15            43.199307  6.60211002E-03  1.16232914E-02
        14   16            43.198734  1.78285925E-03  3.13876676E-03
        14   18            28.010752  1.17866007E-05  1.63727236E-05
        15   17            93.363094  2.85712147E-04  4.30489970E-03
        15   18            93.317426  1.34606695E-04  2.01429418E-03
        16   17            93.317426  1.34606695E-04  2.01429418E-03
        16   18            93.363094  2.85712147E-04  4.30489970E-03
        19   21      --------------- below threshold  3.41444367E-04
        19   24      --------------- below threshold  1.85457179E-04
        19   25            99.794828  2.74297829E-04  1.33691474E-01
        19   27            36.851591  5.70954454E-04  9.04147013E-04
        19   28            59.117569  1.89722283E-05  4.64068006E-05
        19   29            59.164033  2.25741506E-04  5.52800686E-04
        19   30            36.861000  7.73632368E-03  1.22528448E-02
        20   22      --------------- below threshold  3.41444382E-04
        20   23      --------------- below threshold  1.85457179E-04
        20   26            99.794828  2.74297829E-04  1.33691474E-01
        20   27            59.117569  1.89722284E-05  4.64068008E-05
        20   28            36.851591  5.70954454E-04  9.04147013E-04
        20   29            36.861000  7.73632368E-03  1.22528448E-02
        20   30            59.164033  2.25741506E-04  5.52800686E-04
        21   23            99.823962  2.63876207E-04  1.49897202E-01
        21   26      --------------- below threshold  1.85268342E-04
        21   27            59.184297  2.55998849E-05  6.27206762E-05
        21   28            36.918633  7.88105169E-03  1.24934700E-02
        21   29            36.928654  5.83758296E-04  9.25552298E-04
        22   24            99.823962  2.63876207E-04  1.49897202E-01
        22   25      --------------- below threshold  1.85268342E-04
        22   27            36.918633  7.88105169E-03  1.24934700E-02
        22   28            59.184297  2.55998849E-05  6.27206762E-05
        22   30            36.928654  5.83758296E-04  9.25552298E-04
        23   25      --------------- below threshold  4.00849446E-04
        23   27            39.944387  2.03003623E-05  3.38026063E-05
        23   28            60.683016  1.02855923E-02  2.61606846E-02
        23   29            60.677590  9.94625296E-04  2.52941085E-03
        24   26      --------------- below threshold  4.00849430E-04
        24   27            60.683016  1.02855923E-02  2.61606846E-02
        24   28            39.944387  2.03003623E-05  3.38026063E-05
        24   30            60.677590  9.94625295E-04  2.52941084E-03
        25   27            60.718217  9.78831973E-04  2.49182166E-03
        25   28            40.153605  1.38673621E-05  2.31715914E-05
        25   29            39.950575  1.64714826E-04  2.74298758E-04
        25   30            60.712804  1.00851948E-02  2.56704371E-02
        26   27            40.153605  1.38673622E-05  2.31715917E-05
        26   28            60.718217  9.78831973E-04  2.49182166E-03
        26   29            60.712804  1.00851948E-02  2.56704371E-02
        26   30            39.950575  1.64714826E-04  2.74298758E-04
        27   29      --------------- below threshold  2.17734327E-03
        28   30      --------------- below threshold  2.17734327E-03
     ---------------------------------------------------------------
 
 Number of problematic transitions =                     66
 
--
 
 Electric-dipole - electric-octupole not included
++ I/O STATISTICS
 
  I. General I/O information
  - - - - - - - - - - - - - - - - - - - - - - - - - - - - - - - - - - - - - - - - - - -
  Unit  Name          Flsize      Write/Read            MBytes           Write/Read
                      (MBytes)       Calls              In/Out           Time, sec.
  - - - - - - - - - - - - - - - - - - - - - - - - - - - - - - - - - - - - - - - - - - -
   1  ANNI              0.00 .       0/       0 .      0.0/      0.0 .       0/       0
   2  RUNFILE           0.29 .     322/   28122 .      2.3/    203.5 .       0/       0
   3  ONEINT            1.46 .       0/    3720 .      0.0/   3363.8 .       0/       0
   4  JOB001            1.22 .       0/      67 .      0.0/      1.1 .       0/       0
   5  JOB002            1.22 .       0/      67 .      0.0/      1.1 .       0/       0
   6  JOB003            1.22 .       0/      67 .      0.0/      1.1 .       0/       0
   7  JOB004            1.22 .       0/      67 .      0.0/      1.1 .       0/       0
  - - - - - - - - - - - - - - - - - - - - - - - - - - - - - - - - - - - - - - - - - - -
   *  TOTAL             6.63 .     322/   32110 .      2.3/   3571.8 .       0/       0
  - - - - - - - - - - - - - - - - - - - - - - - - - - - - - - - - - - - - - - - - - - -
 
  II. I/O Access Patterns
  - - - - - - - - - - - - - - - - - - - -
  Unit  Name               % of random
                         Write/Read calls
  - - - - - - - - - - - - - - - - - - - -
   1  ANNI                 0.0/   0.0
   2  RUNFILE             28.6/  11.0
   3  ONEINT               0.0/  97.5
   4  JOB001               0.0/  68.7
   5  JOB002               0.0/  68.7
   6  JOB003               0.0/  68.7
   7  JOB004               0.0/  68.7
  - - - - - - - - - - - - - - - - - - - -
--
--- Stop Module: rassi at Fri Mar 22 12:43:30 2024 /rc=_RC_ALL_IS_WELL_ ---
--- Module rassi spent 7 seconds ---

.##################.
.# Happy landing! #.
.##################.

    Timing: Wall=32.18 User=27.62 System=4.05
