   This run of MOLCAS is using the pymolcas driver

                             OPE
                             OPE          NMOL  CASOP  ENMOLC A   SO
                 OPE        NMOLC        AS  OP EN  MO LC     AS  OP
                OPENM       OL CA        SO  PE NM  OL CA     SOP EN
                OP EN      MO   LC       AS  OP ENMOL  CASO   PENMOL
                OP  EN     MO   LC       AS  OP EN     MO     LC ASO
               OP   E  NMOL  C  AS       OP  EN MO     LC     AS  OP
               OP  E   NMO   LC AS        OPEN  MO     LCASOP EN   M
               O  PEN   MO  LCA  SO
            OPE   NMO   L   CAS    OP
        OPENMOL  CASOP     ENMOL   CASOPE
     OPENMOLCA   SOPENMOLCASOPEN   MOLCASOPE
    OPENMOLCAS   OP           EN   MOL    CAS
    OPENMOLCAS       OP  ENM        O     LCA
    OPENMOLCAS    OPEN  MOLCASO     P  E  NMO
    OPENMOLCAS     OP               E  N  MOL
    OPENMOLCA   SO           PENM   O  L  CAS    OPEN    MO    LCAS
    OPENMOLCA   SOP           ENM   O  L  CAS   OP  EN  MOLC  AS   O
    OPENMOLCA   SOPE           NM      O  LCA   S      OP  EN MO
    OPENMOLC                AS         O  PEN   M      OL  CA  SOPE
    OPENMO        LCASOPE  NMOL        C  ASO   P      ENMOLC     AS
    OPE     NMO      LCA  SO     P     E   NM   OL  CA SO  PE N   MO
          OPENMOLCA            SOPE   NMO        LCAS  O    P  ENMO
     OPENMOLCASOPENMOLCASOPENMOLCASOPENMOLCA
        OPENMOLCASOPENMOLCASOPENMOLCASOPE
            OPENMOLCASOPENMOLCASOPENM
               OPENMOLCASOPENMOLCA        version: v23.10
                   OPENMOLCASO
                       OPE                tag:

 OpenMolcas is free software; you can redistribute it and/or modify it
 under the terms of the GNU Lesser General Public License version 2.1.
 OpenMolcas is distributed in the hope that it will be useful, but it
 is provided "as is" and without any express or implied warranties.
 For more details see the full text of the license in the file
 LICENSE or in <http://www.gnu.org/licenses/>.

                 Copyright (C) The OpenMolcas Authors
           For the author list and the recommended citation,
                   consult the file CONTRIBUTORS.md

           *************************************************
           * pymolcas version py2.25                       *
           *   build 2b27fa14244bdc32cb1957e6230cd793      *
           *   (after the EMIL interpreter by V. Veryazov) *
           *************************************************

configuration info
------------------
Host name: manganese.itc.univie.ac.at (Linux)
C Compiler ID: Clang
C flags: -std=gnu99
Fortran Compiler ID: Intel
Fortran flags: -fpp -i8 -heap-arrays
Definitions: _MOLCAS_;_I8_;_LINUX_
Parallel: OFF (GA=OFF)


   ---------------------------------------------------------------------------
  |
  |           Project: MOLCAS
  |    Submitted from: /public/manganese/scratch/tmp/sascha.925337/WORK/master
  |      Scratch area: /public/manganese/scratch/tmp/sascha.925337/WORK/master
  |   Save outputs to: WORKDIR
  |            Molcas: /usr/license/openmolcas/v23.10
  |
  | Scratch area is NOT empty
  |
  |        MOLCASMEM = 10000
  |    MOLCAS_DRIVER = /usr/license/openmolcas/v23.10/pymolcas
  |    MOLCAS_NPROCS = 1
  |    MOLCAS_SOURCE = /usr/license/openmolcas/v23.10
  | MOLCAS_STRUCTURE = 0
  |
   ---------------------------------------------------------------------------

++ ---------   Input file   ---------

&GATEWAY
COORD=MOLCAS.xyz
GROUP=NOSYM
BASIS=cc-pvdz
BASLIB
/user/sascha/development/eci/sharc_main/examples/SHARC_MOLCAS/basisset

RICD
CDTHreshold=0.0001

&SEWARD

>>> COPY /public/manganese/scratch/tmp/sascha.925337/SAVE/MOLCAS.1.JobIph.0 JOBOLD

&RASSCF
SPIN=1
NACTEL=8 0 0
INACTIVE=5
RAS2=6
ITERATIONS=200,100
CIROOT=6 6 1
ORBLISTING=NOTHING
PRWF=0.1
THRS=0.000000010000 0.000100000000 0.000100000000
JOBIPH

>>> COPY MOLCAS.rasscf.molden MOLCAS.1.molden

>>> COPY MOLCAS.JobIph MOLCAS.1.JobIph

>>> COPY /public/manganese/scratch/tmp/sascha.925337/SAVE/MOLCAS.1.JobIph.0 JOB001

>>> COPY MOLCAS.1.JobIph JOB002

&RASSI
NROFJOBIPHS
2 4 4
1 2 3 4
1 2 3 4
MEIN
OVERLAPS

>>> COPY MOLCAS.rassi.h5 MOLCAS.rassi.ovlp.1.h5

>>> COPY MOLCAS.1.JobIph JOB001

&RASSI
NROFJOBIPHS
1 4
1 2 3 4
MEIN

>>> COPY MOLCAS.rassi.h5 MOLCAS.rassi.1.h5

-- ----------------------------------

--- Start Module: gateway at Fri Mar 22 11:35:27 2024 ---
 
()()()()()()()()()()()()()()()()()()()()()()()()()()()()()()()()()()()()()()()()()()()()()()()()()()

                                              &GATEWAY

                                   only a single process is used
                       available to each process: 10 GB of memory, 1 thread?
                                            pid: 1861524
()()()()()()()()()()()()()()()()()()()()()()()()()()()()()()()()()()()()()()()()()()()()()()()()()()
 
 
 
 Basis Set     1 Label: S.CC-PVDZ
 Basis set is read from library:/user/sascha/development/eci/sharc_main/examples/SHARC_MOLCAS/basisset 
 
 
 Basis Set     2 Label: H.CC-PVDZ
 Basis set is read from library:/user/sascha/development/eci/sharc_main/examples/SHARC_MOLCAS/basisset 
 
++    Symmetry information:
      ---------------------
 
                    Character Table for C1 
 
                             E  
                    a        1  x, y, xy, Rz, z, xz, Ry, yz, Rx, I
--
 
 
++    Basis set information:
      ----------------------
 
 
      Basis set label: S.CC-PVDZ.........
 
      Electronic valence basis set:
      ------------------
      Associated Effective Charge  16.000000 au
      Associated Actual Charge     16.000000 au
      Nuclear Model: Point charge
 
      Shell  nPrim  nBasis  Cartesian Spherical Contaminant
         s      12       4        X                  
         p       8       3        X                  
         d       1       1                 X         
 
 
      Basis set label: H.CC-PVDZ.........
 
      Electronic valence basis set:
      ------------------
      Associated Effective Charge   1.000000 au
      Associated Actual Charge      1.000000 au
      Nuclear Model: Point charge
 
      Shell  nPrim  nBasis  Cartesian Spherical Contaminant
         s       4       2        X                  
         p       1       1        X                  
--
 
 
++    Molecular structure info:
      -------------------------
 
                    ************************************************ 
                    **** Cartesian Coordinates / Bohr, Angstrom **** 
                    ************************************************ 
 
     Center  Label                x              y              z                     x              y              z
        1      S1               0.000000       0.000000       0.001589              0.000000       0.000000       0.000841
        2      H2               0.000000       1.842103       2.235421              0.000000       0.974799       1.182934
        3      H3              -0.001890      -1.842103       2.235421             -0.001000      -0.974799       1.182934
 
                    *************************************** 
                    *    InterNuclear Distances / Bohr    * 
                    *************************************** 
 
               1 S1            2 H2            3 H3    
    1 S1       0.000000
    2 H2       2.895401        0.000000
    3 H3       2.895402        3.684207        0.000000
 
                    ******************************************* 
                    *    InterNuclear Distances / Angstrom    * 
                    ******************************************* 
 
               1 S1            2 H2            3 H3    
    1 S1       0.000000
    2 H2       1.532180        0.000000
    3 H3       1.532181        1.949598        0.000000
 
                    ************************************** 
                    *    Valence Bond Angles / Degree    * 
                    ************************************** 
                          Atom centers                 Phi
                      2 H2       1 S1       3 H3        79.02
--
 
 
            Nuclear Potential Energy             11.32343573 au
 
--- Stop Module: gateway at Fri Mar 22 11:35:28 2024 /rc=_RC_ALL_IS_WELL_ ---

--- Start Module: seward at Fri Mar 22 11:35:28 2024 ---
 
()()()()()()()()()()()()()()()()()()()()()()()()()()()()()()()()()()()()()()()()()()()()()()()()()()

                                              &SEWARD

                                   only a single process is used
                       available to each process: 10 GB of memory, 1 thread?
                                            pid: 1861531
()()()()()()()()()()()()()()()()()()()()()()()()()()()()()()()()()()()()()()()()()()()()()()()()()()
 
               SEWARD will generate:
                  Multipole Moment integrals up to order  2
                  Kinetic Energy integrals
                  Nuclear Attraction integrals (point charge)
                  One-Electron Hamiltonian integrals
                  Velocity integrals
                  Orbital angular momentum around (-0.0001  0.0000  0.1341 )
                  Velocity quadrupole around (-0.0001  0.0000  0.1341 )
                  RI decomposed two-electron repulsion integrals stored Cholesky style
                   - acCD auxiliary basis
                   - CD Threshold:   0.10E-03
 
                   Integrals are discarded if absolute value <: 0.10E-13
                   Integral cutoff threshold is set to       <: 0.10E-15
 
            Nuclear Potential Energy             11.32343573 au
 
 
      Basis set specifications :
      Symmetry species         a  
      Basis functions           28
 
 
      Input file to MOLDEN was generated!
 
--- Stop Module: seward at Fri Mar 22 11:35:28 2024 /rc=_RC_ALL_IS_WELL_ ---

>>> COPY /public/manganese/scratch/tmp/sascha.925337/SAVE/MOLCAS.1.JobIph.0 JOBOLD

*** symbolic link created: INPORB -> MOLCAS.GssOrb
--- Start Module: rasscf at Fri Mar 22 11:35:28 2024 ---
 
()()()()()()()()()()()()()()()()()()()()()()()()()()()()()()()()()()()()()()()()()()()()()()()()()()

                                              &RASSCF

                                   only a single process is used
                       available to each process: 10 GB of memory, 1 thread?
                                            pid: 1861534
()()()()()()()()()()()()()()()()()()()()()()()()()()()()()()()()()()()()()()()()()()()()()()()()()()
 
 
      Header of the ONEINT file:
      --------------------------
      
      Integrals generated by Gateway/Seward, Fri Mar 22 11:35:28 2024
 
 
      OrdInt status: non-squared
 
 
      Cartesian coordinates in Angstrom:
      -----------------------------------------------------
      No.  Label        X            Y            Z        
      -----------------------------------------------------
       1   S1         0.00000000   0.00000000   0.00084100
       2   H2         0.00000000   0.97479900   1.18293400
       3   H3        -0.00100000  -0.97479900   1.18293400
      -----------------------------------------------------
      Nuclear repulsion energy =   11.32343573
 
++    Wave function specifications:
      -----------------------------
 
      Number of closed shell electrons          10
      Number of electrons in active shells       8
      Max number of holes in RAS1 space          0
      Max nr of electrons in RAS3 space          0
      Number of inactive orbitals                5
      Number of active orbitals                  6
      Number of secondary orbitals              17
      Spin quantum number                      0.0
      State symmetry                             1
--
 
++    Orbital specifications:
      -----------------------
 
      Symmetry species                           1
                                                 a
      Frozen orbitals                            0
      Inactive orbitals                          5
      Active orbitals                            6
      RAS1 orbitals                              0
      RAS2 orbitals                              6
      RAS3 orbitals                              0
      Secondary orbitals                        17
      Deleted orbitals                           0
      Number of basis functions                 28
--
 
++    CI expansion specifications:
      ----------------------------
 
      Number of CSFs                           105
      Number of determinants                   120
      Number of root(s) required                 6
      Root chosen for geometry opt.              6
      CI roots used                              1     2     3     4     5     6
      weights                                0.167 0.167 0.167 0.167 0.167 0.167
      highest root included in the CI            6
      max. size of the explicit Hamiltonian    105
--
 
++    Optimization specifications:
      ----------------------------
 
      RASSCF algorithm: LK RI/DF
      Maximum number of macro iterations       200
      Maximum number of SX iterations          100
      Threshold for RASSCF energy            0.100E-07
      Threshold for max MO rotation          0.100E-03
      Threshold for max BLB element          0.100E-03
      Level shift parameter                  0.500E+00
      Make Quasi-Newton update
--
 
      The MO-coefficients are taken from the file:
      JOBOLD
      Title:(No title given)                                                        
 
      Total molecular charge    0.00
 
      ************************************************************************************************************************
      *                                                                                                                      *
      *                                            Wave function control section                                             *
      *                                                                                                                      *
      ************************************************************************************************************************
 
 
                                         RASSCF iterations: Energy and convergence statistics
                                         ----------------------------------------------------
 
      Iter CI   SX   CI       RASSCF       Energy    max ROT     max BLB   max BLB  Level Ln srch  Step   QN   Walltime
          iter iter root      energy       change     param      element    value   shift minimum  type update hh:mm:ss
 Nr of preliminary CI iterations:   1
        1   1    3    0  -398.44308902    0.00E+00  -0.56E-04    9  13 1 -0.71E-04   0.00   0.00    SX    NO    0:00:00
        2   1    3    0  -398.44308904   -0.26E-07*  0.11E-04    9  13 1 -0.16E-04   0.00   0.00    SX    NO    0:00:00
        3   1    2    0  -398.44308904   -0.36E-09  -0.26E-05    9  13 1 -0.39E-05   0.00   0.00    SX    NO    0:00:00
        4   1    2    0  -398.44308904   -0.43E-10  -0.68E-06    9  13 1 -0.10E-05   0.00   0.00    SX    NO    0:00:00
      Convergence after  4 iterations
        5   1    2    0  -398.44308904    0.80E-10  -0.68E-06    9  12 1 -0.28E-06   0.00   0.00    SX    NO    0:00:00
 
      ************************************************************************************************************************
                                                      Wave function printout:
                       occupation of active orbitals, and spin coupling of open shells (u,d: Spin up or down)
      ************************************************************************************************************************
 
      Note: transformation to natural orbitals
      has been made, which may change the order of the CSFs.
 
      printout of CI-coefficients larger than  0.10 for root  1
      energy=    -398.691538
      conf/sym  111111     Coeff  Weight
             1  222200  -0.97171 0.94422
            15  2u22d0   0.10924 0.01193
            38  2ud2ud   0.10920 0.01192
 
      printout of CI-coefficients larger than  0.10 for root  2
      energy=    -398.508200
      conf/sym  111111     Coeff  Weight
             2  222ud0   0.97539 0.95140
            10  22udud   0.10906 0.01189
 
      printout of CI-coefficients larger than  0.10 for root  3
      energy=    -398.478575
      conf/sym  111111     Coeff  Weight
             4  222u0d  -0.96184 0.92514
             8  22ud20  -0.11302 0.01277
            18  2u2dud  -0.16520 0.02729
            51  202u2d  -0.10588 0.01121
 
      printout of CI-coefficients larger than  0.10 for root  4
      energy=    -398.351924
      conf/sym  111111     Coeff  Weight
             9  22u20d  -0.74345 0.55271
            15  2u22d0   0.59730 0.35677
            31  220220  -0.17634 0.03110
            52  202202   0.13930 0.01940
 
      printout of CI-coefficients larger than  0.10 for root  5
      energy=    -398.345878
      conf/sym  111111     Coeff  Weight
             7  22u2d0   0.67353 0.45365
            17  2u220d  -0.67543 0.45621
            32  2202ud   0.13691 0.01875
            37  2ud220  -0.14811 0.02194
            40  2ud202   0.15180 0.02304
            50  2022ud  -0.10075 0.01015
 
      printout of CI-coefficients larger than  0.10 for root  6
      energy=    -398.282419
      conf/sym  111111     Coeff  Weight
             7  22u2d0   0.69812 0.48737
            17  2u220d   0.69811 0.48736
 
      Natural orbitals and occupation numbers for root  1
      sym 1:   1.997304   1.961193   1.964608   1.998624   0.048336   0.029935
 
      Natural orbitals and occupation numbers for root  2
      sym 1:   1.998912   1.986432   1.961516   1.000000   0.999157   0.053982
 
      Natural orbitals and occupation numbers for root  3
      sym 1:   1.998795   1.940168   1.971877   1.000000   0.096915   0.992244
 
      Natural orbitals and occupation numbers for root  4
      sym 1:   1.977020   1.582918   1.363576   1.983678   0.471470   0.621338
 
      Natural orbitals and occupation numbers for root  5
      sym 1:   1.992380   1.465189   1.450376   1.997413   0.550774   0.543869
 
      Natural orbitals and occupation numbers for root  6
      sym 1:   1.990636   1.498251   1.485250   1.998508   0.523339   0.504015
 
      ************************************************************************************************************************
      *                                                                                                                      *
      *                                                    Final results                                                     *
      *                                                                                                                      *
      ************************************************************************************************************************
 
 
++    Wave function specifications:
      -----------------------------
 
      Number of closed shell electrons          10
      Number of electrons in active shells       8
      Max number of holes in RAS1 space          0
      Max nr of electrons in RAS3 space          0
      Number of inactive orbitals                5
      Number of active orbitals                  6
      Number of secondary orbitals              17
      Spin quantum number                      0.0
      State symmetry                             1
--
 
++    Orbital specifications:
      -----------------------
 
      Symmetry species                           1
                                                 a
      Frozen orbitals                            0
      Inactive orbitals                          5
      Active orbitals                            6
      RAS1 orbitals                              0
      RAS2 orbitals                              6
      RAS3 orbitals                              0
      Secondary orbitals                        17
      Deleted orbitals                           0
      Number of basis functions                 28
--
 
++    CI expansion specifications:
      ----------------------------
 
      Number of CSFs                           105
      Number of determinants                   120
      Number of root(s) required                 6
      CI roots used                              1     2     3     4     5     6
      weights                                0.167 0.167 0.167 0.167 0.167 0.167
      highest root included in the CI            6
      Root passed to geometry opt.               6
--
 
++    Final optimization conditions:
      ------------------------------
 
      Average CI energy                            -398.44308904
      RASSCF energy for state  6                   -398.28241942
      Super-CI energy                                -0.00000000
      RASSCF energy change                            0.00000000
      Max change in MO coefficients               0.166E-05
      Max non-diagonal density matrix element    -0.685E-06
      Maximum BLB matrix element                 -0.278E-06
      (orbital pair   9,  12 in symmetry   1)
      Norm of electronic gradient            0.933E-01
--
 
 
      Final state energy(ies):
      ------------------------
 
::    RASSCF root number  1 Total energy:   -398.69153828
::    RASSCF root number  2 Total energy:   -398.50819966
::    RASSCF root number  3 Total energy:   -398.47857530
::    RASSCF root number  4 Total energy:   -398.35192379
::    RASSCF root number  5 Total energy:   -398.34587781
::    RASSCF root number  6 Total energy:   -398.28241942
      Von Neumann Entropy (Root   1) =  0.27649
 

      Mulliken population analysis for root number:  1
      -----------------------------------------------
 
 
++    Molecular charges:
      ------------------
 
      Mulliken charges per centre
      ---------------------------
 
                S1      H2      H3    
      Total   16.1051  0.9475  0.9475
 
      N-E     -0.1051  0.0525  0.0525
 
      Total electronic charge=   18.000000
 
      Total            charge=   -0.000000
--
 
 

      Expectation values of various properties for root number:  1
      -----------------------------------------------------------
 
 
++    Molecular properties:
      ---------------------
 
      Charge (e):
                      =   -0.0000
      Dipole Moment (Debye):
      Origin of the operator (Ang)=    0.0000    0.0000    0.0000
                   X= -3.8792E-04               Y=  3.2862E-07               Z=  9.1922E-01           Total=  9.1922E-01
      Quadrupole Moment (Debye*Ang):
      Origin of the operator (Ang)=   -0.0000    0.0000    0.0709
                  XX= -1.6707E+01              XY=  1.7598E-03              XZ= -1.5502E-03              YY= -1.3273E+01
                  YZ=  6.1219E-07              ZZ= -1.3041E+01
      In traceless form (Debye*Ang)
                  XX= -3.5495E+00              XY=  2.6397E-03              XZ= -2.3253E-03              YY=  1.6005E+00
                  YZ=  9.1828E-07              ZZ=  1.9490E+00
--
 
      Von Neumann Entropy (Root   2) =  1.17888
 

      Mulliken population analysis for root number:  2
      -----------------------------------------------
 
 
++    Molecular charges:
      ------------------
 
      Mulliken charges per centre
      ---------------------------
 
                S1      H2      H3    
      Total   15.9281  1.0359  1.0359
 
      N-E      0.0719 -0.0359 -0.0359
 
      Total electronic charge=   18.000000
 
      Total            charge=   -0.000000
--
 
 

      Expectation values of various properties for root number:  2
      -----------------------------------------------------------
 
 
++    Molecular properties:
      ---------------------
 
      Charge (e):
                      =   -0.0000
      Dipole Moment (Debye):
      Origin of the operator (Ang)=    0.0000    0.0000    0.0000
                   X=  7.5462E-06               Y=  5.2921E-06               Z= -1.9428E-02           Total=  1.9428E-02
      Quadrupole Moment (Debye*Ang):
      Origin of the operator (Ang)=   -0.0000    0.0000    0.0709
                  XX= -1.4008E+01              XY= -1.4695E-03              XZ=  1.0188E-03              YY= -1.6871E+01
                  YZ=  1.2811E-05              ZZ= -1.6417E+01
      In traceless form (Debye*Ang)
                  XX=  2.6359E+00              XY= -2.2042E-03              XZ=  1.5282E-03              YY= -1.6591E+00
                  YZ=  1.9216E-05              ZZ= -9.7683E-01
--
 
      Von Neumann Entropy (Root   3) =  1.27683
 

      Mulliken population analysis for root number:  3
      -----------------------------------------------
 
 
++    Molecular charges:
      ------------------
 
      Mulliken charges per centre
      ---------------------------
 
                S1      H2      H3    
      Total   15.8158  1.0921  1.0921
 
      N-E      0.1842 -0.0921 -0.0921
 
      Total electronic charge=   18.000000
 
      Total            charge=   -0.000000
--
 
 

      Expectation values of various properties for root number:  3
      -----------------------------------------------------------
 
 
++    Molecular properties:
      ---------------------
 
      Charge (e):
                      =   -0.0000
      Dipole Moment (Debye):
      Origin of the operator (Ang)=    0.0000    0.0000    0.0000
                   X=  5.0461E-04               Y= -5.5832E-06               Z= -1.1945E+00           Total=  1.1945E+00
      Quadrupole Moment (Debye*Ang):
      Origin of the operator (Ang)=   -0.0000    0.0000    0.0709
                  XX= -1.4459E+01              XY= -1.2709E-03              XZ=  1.8556E-03              YY= -1.6936E+01
                  YZ= -1.4904E-05              ZZ= -1.8846E+01
      In traceless form (Debye*Ang)
                  XX=  3.4315E+00              XY= -1.9064E-03              XZ=  2.7834E-03              YY= -2.8333E-01
                  YZ= -2.2356E-05              ZZ= -3.1481E+00
--
 
      Von Neumann Entropy (Root   4) =  1.68742
 

      Mulliken population analysis for root number:  4
      -----------------------------------------------
 
 
++    Molecular charges:
      ------------------
 
      Mulliken charges per centre
      ---------------------------
 
                S1      H2      H3    
      Total   16.0051  0.9974  0.9974
 
      N-E     -0.0051  0.0026  0.0026
 
      Total electronic charge=   18.000000
 
      Total            charge=   -0.000000
--
 
 

      Expectation values of various properties for root number:  4
      -----------------------------------------------------------
 
 
++    Molecular properties:
      ---------------------
 
      Charge (e):
                      =   -0.0000
      Dipole Moment (Debye):
      Origin of the operator (Ang)=    0.0000    0.0000    0.0000
                   X=  1.5996E-04               Y=  2.1092E-05               Z= -3.7520E-01           Total=  3.7520E-01
      Quadrupole Moment (Debye*Ang):
      Origin of the operator (Ang)=   -0.0000    0.0000    0.0709
                  XX= -1.7069E+01              XY=  7.2443E-04              XZ= -4.6796E-04              YY= -1.5655E+01
                  YZ=  5.8841E-05              ZZ= -1.5962E+01
      In traceless form (Debye*Ang)
                  XX= -1.2610E+00              XY=  1.0867E-03              XZ= -7.0195E-04              YY=  8.6085E-01
                  YZ=  8.8261E-05              ZZ=  4.0019E-01
--
 
      Von Neumann Entropy (Root   5) =  1.69562
 

      Mulliken population analysis for root number:  5
      -----------------------------------------------
 
 
++    Molecular charges:
      ------------------
 
      Mulliken charges per centre
      ---------------------------
 
                S1      H2      H3    
      Total   16.0417  0.9792  0.9791
 
      N-E     -0.0417  0.0208  0.0209
 
      Total electronic charge=   18.000000
 
      Total            charge=   -0.000000
--
 
 

      Expectation values of various properties for root number:  5
      -----------------------------------------------------------
 
 
++    Molecular properties:
      ---------------------
 
      Charge (e):
                      =   -0.0000
      Dipole Moment (Debye):
      Origin of the operator (Ang)=    0.0000    0.0000    0.0000
                   X=  4.6764E-06               Y= -2.1422E-05               Z= -8.1168E-03           Total=  8.1168E-03
      Quadrupole Moment (Debye*Ang):
      Origin of the operator (Ang)=   -0.0000    0.0000    0.0709
                  XX= -1.7107E+01              XY=  8.9938E-04              XZ= -4.9604E-04              YY= -1.5351E+01
                  YZ= -5.9018E-05              ZZ= -1.5933E+01
      In traceless form (Debye*Ang)
                  XX= -1.4648E+00              XY=  1.3491E-03              XZ= -7.4405E-04              YY=  1.1692E+00
                  YZ= -8.8527E-05              ZZ=  2.9555E-01
--
 
      Von Neumann Entropy (Root   6) =  1.64602
 

      Mulliken population analysis for root number:  6
      -----------------------------------------------
 
 
++    Molecular charges:
      ------------------
 
      Mulliken charges per centre
      ---------------------------
 
                S1      H2      H3    
      Total   16.0055  0.9973  0.9973
 
      N-E     -0.0055  0.0027  0.0027
 
      Total electronic charge=   18.000000
 
      Total            charge=   -0.000000
--
 
 

      Expectation values of various properties for root number:  6
      -----------------------------------------------------------
 
 
++    Molecular properties:
      ---------------------
 
      Charge (e):
                      =   -0.0000
      Dipole Moment (Debye):
      Origin of the operator (Ang)=    0.0000    0.0000    0.0000
                   X= -1.5307E-04               Y=  5.6819E-07               Z=  3.6480E-01           Total=  3.6480E-01
      Quadrupole Moment (Debye*Ang):
      Origin of the operator (Ang)=   -0.0000    0.0000    0.0709
                  XX= -1.7067E+01              XY=  9.3046E-04              XZ= -5.4834E-04              YY= -1.5251E+01
                  YZ=  2.9321E-06              ZZ= -1.5770E+01
      In traceless form (Debye*Ang)
                  XX= -1.5569E+00              XY=  1.3957E-03              XZ= -8.2251E-04              YY=  1.1678E+00
                  YZ=  4.3981E-06              ZZ=  3.8913E-01
--
 
 
      Input file to MOLDEN was generated!
 
 
      Input file to MOLDEN was generated!
 
 
      Input file to MOLDEN was generated!
 
 
      Input file to MOLDEN was generated!
 
 
      Input file to MOLDEN was generated!
 
 
      Input file to MOLDEN was generated!
 
 
      Input file to MOLDEN was generated!
 
      Average orbitals are written to the RASORB file
      Natural orbitals for root   1 are written to the RASORB.1 file
      Natural orbitals for root   2 are written to the RASORB.2 file
      Natural orbitals for root   3 are written to the RASORB.3 file
      Natural orbitals for root   4 are written to the RASORB.4 file
      Natural orbitals for root   5 are written to the RASORB.5 file
      Natural orbitals for root   6 are written to the RASORB.6 file
      Spin density orbitals for root   1 are written to the SPDORB.1 file
      Spin density orbitals for root   2 are written to the SPDORB.2 file
      Spin density orbitals for root   3 are written to the SPDORB.3 file
      Spin density orbitals for root   4 are written to the SPDORB.4 file
      Spin density orbitals for root   5 are written to the SPDORB.5 file
      Spin density orbitals for root   6 are written to the SPDORB.6 file
 
--- Stop Module: rasscf at Fri Mar 22 11:35:31 2024 /rc=_RC_ALL_IS_WELL_ ---
--- Module rasscf spent 2 seconds ---

>>> COPY MOLCAS.rasscf.molden MOLCAS.1.molden

>>> COPY MOLCAS.JobIph MOLCAS.1.JobIph

>>> COPY /public/manganese/scratch/tmp/sascha.925337/SAVE/MOLCAS.1.JobIph.0 JOB001

>>> COPY MOLCAS.1.JobIph JOB002

*** symbolic link created: INPORB -> MOLCAS.RasOrb
--- Start Module: rassi at Fri Mar 22 11:35:31 2024 ---
 
()()()()()()()()()()()()()()()()()()()()()()()()()()()()()()()()()()()()()()()()()()()()()()()()()()

                                               &RASSI

                                   only a single process is used
                       available to each process: 10 GB of memory, 1 thread?
                                            pid: 1861553
()()()()()()()()()()()()()()()()()()()()()()()()()()()()()()()()()()()()()()()()()()()()()()()()()()
 
 
      ********************************************************************************
      *                                                                              *
      *                             General data section                             *
      *                                                                              *
      ********************************************************************************
 
   Specific data for JOBIPH file 
 JOB001                                                                         
                                                  
   -------------------------------------
 
   Header from SEWARD:
                                                                               
        Integrals generated by Gateway/Seward, Fri Mar 22 11:34:58 2024        
 
   CASSCF title (first line only):
       (No title given)                                                        
 
   STATE IRREP:                             1
   SPIN MULTIPLICITY:                       1
   ACTIVE ELECTRONS:                        8
   MAX RAS1 HOLES:                          0
   MAX RAS3 ELECTRONS:                      0
   NR OF CONFIG:                          105
 
   Specific data for JOBIPH file 
 JOB002                                                                         
                                                  
   -------------------------------------
 
   Header from SEWARD:
                                                                               
        Integrals generated by Gateway/Seward, Fri Mar 22 11:35:28 2024        
 
   CASSCF title (first line only):
       (No title given)                                                        
 
   STATE IRREP:                             1
   SPIN MULTIPLICITY:                       1
   ACTIVE ELECTRONS:                        8
   MAX RAS1 HOLES:                          0
   MAX RAS3 ELECTRONS:                      0
   NR OF CONFIG:                          105
 
   The following data are common to all the states:
   ------------------------------------------------
   (note: frozen counts as inactive, deleted as secondary)
 
      Nr of irreps: 1
 
                 Total     No./Irrep 
      Irrep                  1
                             a
 
      INACTIVE       5       5
      ACTIVE         6       6
      SECONDARY     17      17
      BASIS         28      28
 
      RAS1           0       0
      RAS2           6       6
      RAS3           0       0
 
        MATRIX ELEMENTS WILL BE COMPUTED FOR THE FOLLOWING ONE-ELECTRON OPERATOR
 S, UNLESS ZERO BY SYMMETRY.
   (Herm=Hermitian, Anti=Antihermitian, Sing=Singlet operator, Trip=Triplet oper
 ator)
     MLTPL  0   1 (HERMSING)     MLTPL  1   1 (HERMSING)     MLTPL  1   2 (HERMSING)
     MLTPL  1   3 (HERMSING)     MLTPL  2   1 (HERMSING)     MLTPL  2   2 (HERMSING)
     MLTPL  2   3 (HERMSING)     MLTPL  2   4 (HERMSING)     MLTPL  2   5 (HERMSING)
     MLTPL  2   6 (HERMSING)     VELOCITY   1 (ANTISING)     VELOCITY   2 (ANTISING)
     VELOCITY   3 (ANTISING)     ANGMOM     1 (ANTISING)     ANGMOM     2 (ANTISING)
     ANGMOM     3 (ANTISING)     MLTPV  2   1 (ANTISING)     MLTPV  2   2 (ANTISING)
     MLTPV  2   3 (ANTISING)     MLTPV  2   4 (ANTISING)     MLTPV  2   5 (ANTISING)
     MLTPV  2   6 (ANTISING)
 
       EIGENSTATES OF A SPIN-FREE HAMILTONIAN WILL BE COMPUTED BASED ON:
 
  A Hamiltonian matrix computed by RASSI.
 
  Nr of states:                     8
 
   State:        1   2   3   4   5   6   7   8
  JobIph:        1   1   1   1   2   2   2   2
 Root nr:        1   2   3   4   1   2   3   4
 

 MO OVERLAP MATRIX IN ORIGINAL ORBITAL BASES:

 
 SYMMETRY LABELS OF ROWS/COLS: 1 1


               1               2               3               4               5

   1   1.00000000      0.534960359E-10  0.386121768E-10  0.172448052E-10 -0.100434892E-07
   2 -0.623021905E-10   1.00000000     -0.543665014E-09  0.187057821E-08 -0.116281198E-05
   3 -0.452617261E-10  0.551530202E-10  0.999999911      0.142081706E-05 -0.422606879E-03
   4 -0.109958503E-10 -0.128526804E-08 -0.120412972E-05  0.999999869      0.512704837E-03
   5  0.850983844E-08  0.114836577E-05  0.422594166E-03 -0.512696416E-03  0.999999779    
   6  0.188289724E-08  0.126889120E-08  0.305336415E-06 -0.156113675E-08  0.739371027E-06
   7 -0.573908369E-11 -0.495954361E-09 -0.108567339E-08  0.184952093E-08 -0.363456800E-06
   8  0.886715341E-10 -0.148713776E-08 -0.138262257E-07 -0.724240588E-09  0.322139570E-06
   9 -0.176938667E-07 -0.353085930E-06  0.236220893E-06 -0.182084162E-06 -0.376798461E-08
  10  0.764388092E-11 -0.194096472E-11  0.170628963E-09  0.151111097E-08 -0.645572721E-08
  11  0.484683939E-10 -0.173230701E-08 -0.112049712E-07  0.826274812E-11 -0.121391386E-06


               6               7               8               9              10

   1 -0.245058198E-08  0.165988018E-08 -0.137220722E-08  0.807004656E-08 -0.464393874E-08
   2 -0.666062334E-08  0.147296260E-07 -0.966392713E-08  0.364203718E-06 -0.366200669E-07
   3 -0.307972083E-06  0.631982453E-08  0.940639836E-08 -0.169501282E-06 -0.593384931E-08
   4  0.311614602E-08 -0.492389371E-08  0.322310359E-08  0.758822752E-07  0.546117049E-10
   5 -0.343529038E-05  0.767826009E-05 -0.605190386E-05  0.364623741E-08 -0.185551141E-04
   6  0.999999978      0.117602028E-06 -0.138801911E-06 -0.725441142E-04 -0.104462996E-06
   7 -0.366422888E-07  0.999999910      0.400868419E-05  0.459664553E-03 -0.167949097E-06
   8  0.707994012E-07 -0.385066187E-05  0.999999929     -0.388916423E-03  0.757366192E-07
   9  0.296454092E-04 -0.341348643E-03  0.295754647E-03  0.999999778     -0.503588578E-03
  10  0.163295661E-07 -0.252072520E-07  0.708436988E-07  0.211746272E-03   1.00000003    
  11  0.600696160E-08 -0.239104619E-07 -0.256362902E-07  0.123572049E-03  0.157529015E-04


              11
   1 -0.483709057E-08
   2 -0.354183846E-07
   3  0.704038630E-08
   4  0.283389853E-09
   5 -0.186641121E-04
   6 -0.867745723E-07
   7 -0.157895360E-06
   8  0.163144964E-06
   9 -0.415098503E-03
  10 -0.156479558E-04
  11   1.00000006    
 
 *******************************************************************************
 *
 
  HAMILTONIAN MATRIX FOR THE ORIGINAL STATES:
 
                   |    1 >          |    2 >          |    3 >          |    4 >          |    5 > 
 <    1 |      -398.69153811       -0.00019413        0.00017231        0.00000002     -398.69142371
 <    2 |        -0.00019413     -398.50819951        0.00000012        0.00008208       -0.29016529
 <    3 |         0.00017231        0.00000012     -398.47857515        0.00006398        0.23709203
 <    4 |         0.00000002        0.00008208        0.00006398     -398.35192377        0.00003258
 <    5 |      -398.69142371       -0.29016529        0.23709203        0.00003258     -398.69153828
 <    6 |         0.14168754     -398.50807596        0.00066172        0.12631983        0.00000000
 <    7 |        -0.09039458       -0.00063586     -398.47849011        0.12328582       -0.00000000
 <    8 |        -0.00000847       -0.08132973       -0.09249902     -398.35183404        0.00000000
                   |    6 >          |    7 >          |    8 > 
 <    1 |         0.14168754       -0.09039458       -0.00000847
 <    2 |      -398.50807596       -0.00063586       -0.08132973
 <    3 |         0.00066172     -398.47849011       -0.09249902
 <    4 |         0.12631983        0.12328582     -398.35183404
 <    5 |         0.00000000       -0.00000000        0.00000000
 <    6 |      -398.50819966        0.00000000        0.00000000
 <    7 |         0.00000000     -398.47857530        0.00000000
 <    8 |         0.00000000        0.00000000     -398.35192379
 
      OVERLAP MATRIX FOR THE ORIGINAL STATES:
 
      1.00000000
      0.00000000      1.00000000
     -0.00000000     -0.00000000      1.00000000
      0.00000000      0.00000000      0.00000000      1.00000000
      0.99999971      0.00072779     -0.00059467     -0.00000008      1.00000000
     -0.00035555      0.99999969     -0.00000166     -0.00031698     -0.00000000
      1.00000000
      0.00022685      0.00000160      0.99999979     -0.00030939     -0.00000000
     -0.00000000      1.00000000
      0.00000002      0.00020416      0.00023220      0.99999977      0.00000000
      0.00000000     -0.00000000      1.00000000
 
++ Matrix elements for input states
   --------------------------------
 
  MATRIX ELEMENTS OF 1-ELECTRON OPERATORS
  FOR THE RASSCF INPUT WAVE FUNCTIONS:
 
 
 PROPERTY: MLTPL  0   COMPONENT:*   1
 ORIGIN    :   0.00000000D+00   0.00000000D+00   0.00000000D+00
 STATE     :       1                2                3                4
 
     1        0.291473178E-06 -0.372241055E-03  0.367817188E-03  0.131827283E-07
     2       -0.372241055E-03 -0.257631498E-07  0.320972836E-06  0.112819209E-03
     3        0.367817188E-03  0.320972836E-06 -0.233965345E-07  0.771891806E-04
     4        0.131827283E-07  0.112819209E-03  0.771891806E-04 -0.697760179E-07
     5         0.00000000       0.00000000      0.173472348E-17  0.145228881E-15
     6        0.867361738E-18 -0.355271368E-14  0.588552373E-16  0.867361738E-18
     7         0.00000000     -0.139499550E-15   0.00000000      0.867361738E-18
     8        0.124141149E-16 -0.433680869E-18  0.867361738E-18 -0.710542736E-14
 
 
 PROPERTY: MLTPL  0   COMPONENT:*   1
 ORIGIN    :   0.00000000D+00   0.00000000D+00   0.00000000D+00
 STATE     :       5                6                7                8
 
     1         0.00000000      0.867361738E-18   0.00000000      0.124141149E-16
     2         0.00000000     -0.355271368E-14 -0.139499550E-15 -0.433680869E-18
     3        0.173472348E-17  0.588552373E-16   0.00000000      0.867361738E-18
     4        0.145228881E-15  0.867361738E-18  0.867361738E-18 -0.710542736E-14
     5       -0.103028697E-12 -0.232564822E-16  0.604773588E-15  0.215468919E-14
     6       -0.232564822E-16 -0.994759830E-13 -0.161515432E-15  0.165031706E-15
     7        0.604773588E-15 -0.161515432E-15 -0.994759830E-13  0.718420989E-15
     8        0.215468919E-14  0.165031706E-15  0.718420989E-15 -0.110134124E-12
 
 
 PROPERTY: MLTPL  1   COMPONENT:*   1
 ORIGIN    :   0.00000000D+00   0.00000000D+00   0.00000000D+00
 STATE     :       1                2                3                4
 
     1       -0.301048246E-04  0.154088467E-06  0.279384951E-01  0.140545922E-04
     2        0.154088467E-06  0.159449212E-03 -0.364309675E-03 -0.708679397E-07
     3        0.279384951E-01 -0.364309675E-03  0.354960789E-03  0.261107540    
     4        0.140545922E-04 -0.708679397E-07  0.261107540      0.121816144E-03
     5       -0.127416160E-03  0.986825669E-07  0.279383061E-01 -0.131971872E-03
     6       -0.840393083E-07  0.784180863E-04 -0.326816102E-03 -0.368432889E-06
     7        0.279388878E-01 -0.367513357E-03  0.277775670E-03  0.261107691    
     8       -0.793161611E-04 -0.120788757E-05  0.261107544      0.455019284E-04
 
 
 PROPERTY: MLTPL  1   COMPONENT:*   1
 ORIGIN    :   0.00000000D+00   0.00000000D+00   0.00000000D+00
 STATE     :       5                6                7                8
 
     1       -0.127416160E-03 -0.840393083E-07  0.279388878E-01 -0.793161611E-04
     2        0.986825669E-07  0.784180863E-04 -0.367513357E-03 -0.120788757E-05
     3        0.279383061E-01 -0.326816102E-03  0.277775670E-03  0.261107544    
     4       -0.131971872E-03 -0.368432889E-06  0.261107691      0.455019284E-04
     5       -0.152620972E-03  0.585715199E-09  0.279385144E-01 -0.128180473E-03
     6        0.585715199E-09  0.296889738E-05 -0.324104325E-03 -0.145528658E-05
     7        0.279385144E-01 -0.324104325E-03  0.198529480E-03  0.261107617    
     8       -0.128180473E-03 -0.145528658E-05  0.261107617      0.629333525E-04
 
 
 PROPERTY: MLTPL  1   COMPONENT:*   2
 ORIGIN    :   0.00000000D+00   0.00000000D+00   0.00000000D+00
 STATE     :       1                2                3                4
 
     1       -0.449841077E-06  0.324118191E-03 -0.304424630E-03 -0.147865511E-06
     2        0.324118191E-03  0.205663367E-07 -0.632183712     -0.110866437E-03
     3       -0.304424630E-03 -0.632183712     -0.870954309E-08 -0.784546699E-04
     4       -0.147865511E-06 -0.110866437E-03 -0.784546699E-04  0.104513781E-06
     5       -0.153510666E-07  0.240158688E-03 -0.203138660E-03 -0.406247626E-07
     6       -0.125965842E-03  0.997201402E-06 -0.632183027      0.201370844E-03
     7        0.127007739E-03 -0.632182980     -0.110658272E-05  0.235891657E-03
     8       -0.108328335E-05 -0.158339143E-03 -0.316716198E-03  0.434719197E-05
 
 
 PROPERTY: MLTPL  1   COMPONENT:*   2
 ORIGIN    :   0.00000000D+00   0.00000000D+00   0.00000000D+00
 STATE     :       5                6                7                8
 
     1       -0.153510666E-07 -0.125965842E-03  0.127007739E-03 -0.108328335E-05
     2        0.240158688E-03  0.997201402E-06 -0.632182980     -0.158339143E-03
     3       -0.203138660E-03 -0.632183027     -0.110658272E-05 -0.316716198E-03
     4       -0.406247626E-07  0.201370844E-03  0.235891657E-03  0.434719197E-05
     5        0.129290962E-06  0.181975255E-06 -0.148426233E-04 -0.104237488E-05
     6        0.181975255E-06  0.208206250E-05 -0.632183095     -0.151884659E-07
     7       -0.148426233E-04 -0.632183095     -0.219658528E-05 -0.134015781E-03
     8       -0.104237488E-05 -0.151884659E-07 -0.134015781E-03  0.829804674E-05
 
 
 PROPERTY: MLTPL  1   COMPONENT:*   3
 ORIGIN    :   0.00000000D+00   0.00000000D+00   0.00000000D+00
 STATE     :       1                2                3                4
 
     1        0.361649834     -0.403854121E-03  0.378557923E-03  0.302836311    
     2       -0.403854121E-03 -0.764365930E-02  0.525871857E-06  0.135999704E-03
     3        0.378557923E-03  0.525871857E-06 -0.469933639      0.980312498E-04
     4        0.302836311      0.135999704E-03  0.980312498E-04 -0.147614931    
     5        0.361649451      0.122324014E-03 -0.385119544E-04  0.302836362    
     6       -0.742741618E-04 -0.764358586E-02  0.680078733E-06 -0.902663573E-04
     7       -0.189723164E-04 -0.455356590E-07 -0.469933387      0.176538342E-03
     8        0.302836015      0.218511458E-03 -0.143503718E-03 -0.147614442    
 
 
 PROPERTY: MLTPL  1   COMPONENT:*   3
 ORIGIN    :   0.00000000D+00   0.00000000D+00   0.00000000D+00
 STATE     :       5                6                7                8
 
     1        0.361649451     -0.742741618E-04 -0.189723164E-04  0.302836015    
     2        0.122324014E-03 -0.764358586E-02 -0.455356590E-07  0.218511458E-03
     3       -0.385119544E-04  0.680078733E-06 -0.469933387     -0.143503718E-03
     4        0.302836362     -0.902663573E-04  0.176538342E-03 -0.147614442    
     5        0.361649638     -0.366875167E-06  0.120808875E-04  0.302836147    
     6       -0.366875167E-06 -0.764357861E-02  0.611826546E-06 -0.740178792E-07
     7        0.120808875E-04  0.611826546E-06 -0.469933451      0.110495260E-03
     8        0.302836147     -0.740178792E-07  0.110495260E-03 -0.147614194    
 
 
 PROPERTY: MLTPL  2   COMPONENT:*   1
 ORIGIN    :  -0.56035333D-04   0.00000000D+00   0.13406721D+00
 STATE     :       1                2                3                4
 
     1        -12.4208955     -0.148341318E-02  0.155066779E-02  0.146014243    
     2       -0.148341318E-02  -10.4146060      0.194359354E-05  0.390568924E-03
     3        0.155066779E-02  0.194359354E-05  -10.7499860      0.279408923E-03
     4        0.146014243      0.390568924E-03  0.279408923E-03  -12.6905225    
     5        -12.4208928     -0.863527049E-02  0.735437754E-02  0.146015239    
     6        0.425490777E-02  -10.4146025      0.188563157E-04  0.378967308E-02
     7       -0.263594015E-02 -0.154103398E-04  -10.7499834      0.394782563E-02
     8        0.146013873     -0.186476829E-02 -0.239301407E-02  -12.6905198    
 
 
 PROPERTY: MLTPL  2   COMPONENT:*   1
 ORIGIN    :  -0.56035333D-04   0.00000000D+00   0.13406721D+00
 STATE     :       5                6                7                8
 
     1        -12.4208928      0.425490777E-02 -0.263594015E-02  0.146013873    
     2       -0.863527049E-02  -10.4146025     -0.154103398E-04 -0.186476829E-02
     3        0.735437754E-02  0.188563157E-04  -10.7499834     -0.239301407E-02
     4        0.146015239      0.378967308E-02  0.394782563E-02  -12.6905198    
     5        -12.4208967      0.597986271E-03 -0.264689218E-03  0.146014315    
     6        0.597986271E-03  -10.4146066      0.183716439E-05  0.483581321E-03
     7       -0.264689218E-03  0.183716439E-05  -10.7499861      0.582828495E-03
     8        0.146014315      0.483581321E-03  0.582828495E-03  -12.6905226    
 
 
 PROPERTY: MLTPL  2   COMPONENT:*   2
 ORIGIN    :  -0.56035333D-04   0.00000000D+00   0.13406721D+00
 STATE     :       1                2                3                4
 
     1        0.128184100E-03  0.583114970      0.154951855E-06 -0.279040453E-03
     2        0.583114970     -0.571385789E-03  0.999962595E-03  0.471150176    
     3        0.154951855E-06  0.999962595E-03 -0.860039469E-03  0.509077224E-07
     4       -0.279040453E-03  0.471150176      0.509077224E-07 -0.490284673E-03
     5        0.941677164E-03  0.583115501     -0.412825693E-06  0.224211718E-04
     6        0.583115281     -0.676856844E-03  0.957021499E-03  0.471149518    
     7        0.444895076E-06  0.133697329E-02 -0.861072248E-03  0.273595063E-06
     8        0.727852076E-04  0.471150292     -0.275290186E-05  0.124737162E-03
 
 
 PROPERTY: MLTPL  2   COMPONENT:*   2
 ORIGIN    :  -0.56035333D-04   0.00000000D+00   0.13406721D+00
 STATE     :       5                6                7                8
 
     1        0.941677164E-03  0.583115281      0.444895076E-06  0.727852076E-04
     2        0.583115501     -0.676856844E-03  0.133697329E-02  0.471150292    
     3       -0.412825693E-06  0.957021499E-03 -0.861072248E-03 -0.275290186E-05
     4        0.224211718E-04  0.471149518      0.273595063E-06  0.124737162E-03
     5        0.130838206E-02  0.583115018      0.924983008E-06  0.233704797E-03
     6        0.583115018     -0.109253590E-02  0.129731436E-02  0.471149803    
     7        0.924983008E-06  0.129731436E-02 -0.944911013E-03 -0.223511975E-05
     8        0.233704797E-03  0.471149803     -0.223511975E-05  0.538598719E-03
 
 
 PROPERTY: MLTPL  2   COMPONENT:*   3
 ORIGIN    :  -0.56035333D-04   0.00000000D+00   0.13406721D+00
 STATE     :       1                2                3                4
 
     1       -0.294575928E-03  0.210426791E-06  0.313352379     -0.379371805E-03
     2        0.210426791E-06  0.630092904E-03 -0.133036070E-02 -0.744843405E-07
     3        0.313352379     -0.133036070E-02  0.106803641E-02 -0.689034394    
     4       -0.379371805E-03 -0.744843405E-07 -0.689034394      0.587671441E-03
     5       -0.919009206E-03 -0.328686602E-06  0.313352837      0.158461703E-04
     6       -0.896250682E-06  0.650885739E-03 -0.161456558E-02  0.174966180E-05
     7        0.313353101     -0.135145919E-02  0.113184544E-02 -0.689033697    
     8        0.290803971E-05  0.311409528E-05 -0.689034475      0.322014131E-04
 
 
 PROPERTY: MLTPL  2   COMPONENT:*   3
 ORIGIN    :  -0.56035333D-04   0.00000000D+00   0.13406721D+00
 STATE     :       5                6                7                8
 
     1       -0.919009206E-03 -0.896250682E-06  0.313353101      0.290803971E-05
     2       -0.328686602E-06  0.650885739E-03 -0.135145919E-02  0.311409528E-05
     3        0.313352837     -0.161456558E-02  0.113184544E-02 -0.689034475    
     4        0.158461703E-04  0.174966180E-05 -0.689033697      0.322014131E-04
     5       -0.115255065E-02 -0.393558770E-06  0.313352616      0.166333622E-03
     6       -0.393558770E-06  0.757442628E-03 -0.157332999E-02  0.450252384E-05
     7        0.313352616     -0.157332999E-02  0.137958502E-02 -0.689033998    
     8        0.166333622E-03  0.450252384E-05 -0.689033998     -0.347920261E-03
 
 
 PROPERTY: MLTPL  2   COMPONENT:*   4
 ORIGIN    :  -0.56035333D-04   0.00000000D+00   0.13406721D+00
 STATE     :       1                2                3                4
 
     1        -9.86826747     -0.819568098E-03  0.808415120E-03  0.601738621    
     2       -0.819568098E-03  -12.5434261      0.995538497E-06  0.249960022E-03
     3        0.808415120E-03  0.995538497E-06  -12.5912315      0.168213141E-03
     4        0.601738621      0.249960022E-03  0.168213141E-03  -11.6388096    
     5        -9.86826507     -0.797326838E-02  0.621532790E-02  0.601739638    
     6        0.364260034E-02  -12.5434214      0.208392843E-04  0.336070463E-02
     7       -0.266129155E-02 -0.203882012E-04  -12.5912276      0.389627829E-02
     8        0.601737965     -0.238407276E-02 -0.312078488E-02  -11.6388058    
 
 
 PROPERTY: MLTPL  2   COMPONENT:*   4
 ORIGIN    :  -0.56035333D-04   0.00000000D+00   0.13406721D+00
 STATE     :       5                6                7                8
 
     1        -9.86826507      0.364260034E-02 -0.266129155E-02  0.601737965    
     2       -0.797326838E-02  -12.5434214     -0.203882012E-04 -0.238407276E-02
     3        0.621532790E-02  0.208392843E-04  -12.5912276     -0.312078488E-02
     4        0.601739638      0.336070463E-02  0.389627829E-02  -11.6388058    
     5        -9.86826785     -0.598490870E-03  0.657040812E-06  0.601738443    
     6       -0.598490870E-03  -12.5434242     -0.465392271E-06 -0.482904059E-03
     7        0.657040812E-06 -0.465392271E-06  -12.5912291      0.263761456E-06
     8        0.601738443     -0.482904059E-03  0.263761456E-06  -11.6388084    
 
 
 PROPERTY: MLTPL  2   COMPONENT:*   5
 ORIGIN    :  -0.56035333D-04   0.00000000D+00   0.13406721D+00
 STATE     :       1                2                3                4
 
     1       -0.621745563E-06  0.360397914E-03 -0.319606202E-03 -0.127876199E-06
     2        0.360397914E-03 -0.153563703E-06  -3.06694473     -0.134902178E-03
     3       -0.319606202E-03  -3.06694473      0.868921974E-07 -0.995445748E-04
     4       -0.127876199E-06 -0.134902178E-03 -0.995445748E-04  0.290973944E-06
     5        0.481388822E-07  0.530126859E-03 -0.649924165E-03  0.236623382E-06
     6       -0.364982522E-03  0.489821864E-05  -3.06694298      0.122446826E-02
     7        0.693990311E-03  -3.06694272     -0.552984138E-05  0.144444968E-02
     8        0.249092535E-05 -0.654253419E-03 -0.646913656E-03  0.226499037E-04
 
 
 PROPERTY: MLTPL  2   COMPONENT:*   5
 ORIGIN    :  -0.56035333D-04   0.00000000D+00   0.13406721D+00
 STATE     :       5                6                7                8
 
     1        0.481388822E-07 -0.364982522E-03  0.693990311E-03  0.249092535E-05
     2        0.530126859E-03  0.489821864E-05  -3.06694272     -0.654253419E-03
     3       -0.649924165E-03  -3.06694298     -0.552984138E-05 -0.646913656E-03
     4        0.236623382E-06  0.122446826E-02  0.144444968E-02  0.226499037E-04
     5        0.455145409E-06  0.247089244E-03 -0.161297361E-03  0.260394657E-05
     6        0.247089244E-03  0.952455833E-05  -3.06694332      0.199282332E-03
     7       -0.161297361E-03  -3.06694332     -0.110806623E-04  0.352547367E-03
     8        0.260394657E-05  0.199282332E-03  0.352547367E-03  0.437466729E-04
 
 
 PROPERTY: MLTPL  2   COMPONENT:*   6
 ORIGIN    :  -0.56035333D-04   0.00000000D+00   0.13406721D+00
 STATE     :       1                2                3                4
 
     1        -9.69552179     -0.892847862E-03  0.865881974E-03 -0.247386193    
     2       -0.892847862E-03  -12.2052676      0.108895761E-05  0.274770916E-03
     3        0.865881974E-03  0.108895761E-05  -14.0111760      0.192597757E-03
     4       -0.247386193      0.274770916E-03  0.192597757E-03  -11.8671384    
     5        -9.69551973     -0.754878717E-02  0.626604999E-02 -0.247384858    
     6        0.408972604E-02  -12.2052627      0.225639858E-04  0.387911437E-02
     7       -0.262162995E-02 -0.197478527E-04  -14.0111717      0.361898398E-02
     8       -0.247386481     -0.263682677E-02 -0.321269870E-02  -11.8671344    
 
 
 PROPERTY: MLTPL  2   COMPONENT:*   6
 ORIGIN    :  -0.56035333D-04   0.00000000D+00   0.13406721D+00
 STATE     :       5                6                7                8
 
     1        -9.69551973      0.408972604E-02 -0.262162995E-02 -0.247386481    
     2       -0.754878717E-02  -12.2052627     -0.197478527E-04 -0.263682677E-02
     3        0.626604999E-02  0.225639858E-04  -14.0111717     -0.321269870E-02
     4       -0.247384858      0.387911437E-02  0.361898398E-02  -11.8671344    
     5        -9.69552262     -0.316633830E-06  0.265858457E-03 -0.247385903    
     6       -0.316633830E-06  -12.2052659      0.211513366E-05  0.238390202E-06
     7        0.265858457E-03  0.211513366E-05  -14.0111735     -0.582425541E-03
     8       -0.247385903      0.238390202E-06 -0.582425541E-03  -11.8671372    
 
 
 PROPERTY: VELOCITY   COMPONENT:*   1
 ORIGIN    :   0.00000000D+00   0.00000000D+00   0.00000000D+00
 STATE     :       1                2                3                4
 
     1        0.885355442E-20 -0.207922021E-06  0.360557146E-01  0.111624454E-04
     2        0.207922021E-06  0.112004867E-19  0.118914156E-05 -0.400057928E-07
     3       -0.360557146E-01 -0.118914156E-05 -0.938217420E-20 -0.501677442E-01
     4       -0.111624454E-04  0.400057928E-07  0.501677442E-01  0.557021564E-19
     5        0.139620508E-04 -0.533220198E-07  0.360554859E-01  0.344756754E-04
     6        0.815412496E-07 -0.842417544E-05  0.619338170E-05  0.510384352E-07
     7       -0.360554591E-01  0.440008120E-05  0.116804713E-04 -0.501676994E-01
     8       -0.360782533E-04 -0.176300365E-06  0.501677652E-01 -0.189175939E-04
 
 
 PROPERTY: VELOCITY   COMPONENT:*   1
 ORIGIN    :   0.00000000D+00   0.00000000D+00   0.00000000D+00
 STATE     :       5                6                7                8
 
     1       -0.139620508E-04 -0.815412496E-07  0.360554591E-01  0.360782533E-04
     2        0.533220198E-07  0.842417544E-05 -0.440008120E-05  0.176300365E-06
     3       -0.360554859E-01 -0.619338170E-05 -0.116804713E-04 -0.501677652E-01
     4       -0.344756754E-04 -0.510384352E-07  0.501676994E-01  0.189175939E-04
     5        0.316531073E-19 -0.745637132E-07  0.360553950E-01  0.474953897E-04
     6        0.745637132E-07 -0.510113087E-19 -0.280876221E-05  0.222149328E-06
     7       -0.360553950E-01  0.280876221E-05  0.798630523E-19 -0.501677237E-01
     8       -0.474953897E-04 -0.222149328E-06  0.501677237E-01 -0.487326744E-20
 
 
 PROPERTY: VELOCITY   COMPONENT:*   2
 ORIGIN    :   0.00000000D+00   0.00000000D+00   0.00000000D+00
 STATE     :       1                2                3                4
 
     1       -0.424262390E-17 -0.135929853E-03  0.126032431E-03 -0.592548586E-07
     2        0.135929853E-03 -0.120778125E-16 -0.544106529E-02 -0.253151079E-04
     3       -0.126032431E-03  0.544106529E-02  0.166029834E-16 -0.309866763E-04
     4        0.592548586E-07  0.253151079E-04  0.309866763E-04  0.123383450E-16
     5        0.417286142E-07 -0.750593914E-04  0.521936472E-04 -0.287243035E-09
     6       -0.655664690E-05  0.413374542E-08 -0.544104041E-02 -0.136555618E-04
     7        0.344593155E-04  0.544111089E-02 -0.218335239E-07 -0.283132312E-04
     8       -0.249563748E-06 -0.694656844E-05 -0.305375031E-04 -0.259525141E-07
 
 
 PROPERTY: VELOCITY   COMPONENT:*   2
 ORIGIN    :   0.00000000D+00   0.00000000D+00   0.00000000D+00
 STATE     :       5                6                7                8
 
     1       -0.417286142E-07  0.655664690E-05 -0.344593155E-04  0.249563748E-06
     2        0.750593914E-04 -0.413374542E-08 -0.544111089E-02  0.694656844E-05
     3       -0.521936472E-04  0.544104041E-02  0.218335239E-07  0.305375031E-04
     4        0.287243035E-09  0.136555618E-04  0.283132312E-04  0.259525141E-07
     5        0.212930821E-17  0.251466631E-07 -0.186036031E-04  0.239407643E-06
     6       -0.251466631E-07 -0.314079622E-16 -0.544108000E-02  0.342388489E-07
     7        0.186036031E-04  0.544108000E-02 -0.631332977E-17  0.257370914E-04
     8       -0.239407643E-06 -0.342388489E-07 -0.257370914E-04  0.335582019E-18
 
 
 PROPERTY: VELOCITY   COMPONENT:*   3
 ORIGIN    :   0.00000000D+00   0.00000000D+00   0.00000000D+00
 STATE     :       1                2                3                4
 
     1       -0.641044032E-16  0.162944615E-03 -0.151503994E-03 -0.112227214    
     2       -0.162944615E-03  0.223335775E-16  0.895169273E-08  0.304020775E-04
     3        0.151503994E-03 -0.895169273E-08  0.618120594E-16  0.370040174E-04
     4        0.112227214     -0.304020775E-04 -0.370040174E-04 -0.911145410E-16
     5        0.337713027E-07  0.566751812E-04 -0.463494906E-04 -0.112227114    
     6        0.222671513E-04 -0.505307168E-08 -0.130928137E-07  0.476466155E-04
     7       -0.364045203E-04 -0.280407294E-07 -0.135963439E-07  0.735085790E-05
     8        0.112227001      0.783861044E-04 -0.280393081E-04  0.847322492E-07
 
 
 PROPERTY: VELOCITY   COMPONENT:*   3
 ORIGIN    :   0.00000000D+00   0.00000000D+00   0.00000000D+00
 STATE     :       5                6                7                8
 
     1       -0.337713027E-07 -0.222671513E-04  0.364045203E-04 -0.112227001    
     2       -0.566751812E-04  0.505307168E-08  0.280407294E-07 -0.783861044E-04
     3        0.463494906E-04  0.130928137E-07  0.135963439E-07  0.280393081E-04
     4        0.112227114     -0.476466155E-04 -0.735085790E-05 -0.847322492E-07
     5       -0.385470522E-16 -0.145012851E-06  0.153416931E-04 -0.112227008    
     6        0.145012851E-06  0.360780501E-16 -0.108026080E-07  0.188751694E-07
     7       -0.153416931E-04  0.108026080E-07 -0.147908081E-15 -0.212590547E-04
     8        0.112227008     -0.188751694E-07  0.212590547E-04 -0.302680115E-16
 
 
 PROPERTY: ANGMOM     COMPONENT:*   1
 ORIGIN    :  -0.56035333D-04   0.00000000D+00   0.13406721D+00
 STATE     :       1                2                3                4
 
     1       -0.645733091E-16  0.112927144E-04 -0.133734235E-04 -0.226232156E-06
     2       -0.112927144E-04 -0.582941769E-16 -0.379899479      0.418727138E-05
     3        0.133734235E-04  0.379899479      0.136942870E-15  0.119734374E-05
     4        0.226232156E-06 -0.418727138E-05 -0.119734374E-05 -0.679849905E-16
     5        0.455532229E-07 -0.135916663E-03 -0.147629474E-03 -0.159479755E-06
     6        0.213575844E-03 -0.378566104E-06 -0.379899544      0.255956521E-03
     7        0.140985673E-03  0.379899336     -0.782331574E-06 -0.321362500E-03
     8        0.333131220E-05 -0.105969168E-03  0.222383458E-03 -0.142430811E-06
 
 
 PROPERTY: ANGMOM     COMPONENT:*   1
 ORIGIN    :  -0.56035333D-04   0.00000000D+00   0.13406721D+00
 STATE     :       5                6                7                8
 
     1       -0.455532229E-07 -0.213575844E-03 -0.140985673E-03 -0.333131220E-05
     2        0.135916663E-03  0.378566104E-06 -0.379899336      0.105969168E-03
     3        0.147629474E-03  0.379899544      0.782331574E-06 -0.222383458E-03
     4        0.159479755E-06 -0.255956521E-03  0.321362500E-03  0.142430811E-06
     5       -0.156613819E-16 -0.282282606E-03 -0.254513024E-03 -0.325542940E-05
     6        0.282282606E-03 -0.476347851E-16 -0.379899357      0.237419185E-03
     7        0.254513024E-03  0.379899357      0.238877591E-16 -0.373490110E-03
     8        0.325542940E-05 -0.237419185E-03  0.373490110E-03  0.106039464E-15
 
 
 PROPERTY: ANGMOM     COMPONENT:*   2
 ORIGIN    :  -0.56035333D-04   0.00000000D+00   0.13406721D+00
 STATE     :       1                2                3                4
 
     1        0.431816616E-19  0.144269812E-06 -0.496214680     -0.307248493E-03
     2       -0.144269812E-06 -0.900027683E-20  0.180114391E-04  0.411298591E-07
     3        0.496214680     -0.180114391E-04 -0.577240971E-19 -0.728019110    
     4        0.307248493E-03 -0.411298591E-07  0.728019110     -0.295713311E-19
     5       -0.122297964E-03  0.656658989E-07 -0.496214595      0.154537400E-03
     6       -0.873967300E-06 -0.225480505E-03  0.157890128E-03  0.134888223E-05
     7        0.496214508      0.414643821E-04 -0.540148546E-03 -0.728018897    
     8        0.164300167E-03 -0.326141711E-05  0.728018835     -0.349645968E-03
 
 
 PROPERTY: ANGMOM     COMPONENT:*   2
 ORIGIN    :  -0.56035333D-04   0.00000000D+00   0.13406721D+00
 STATE     :       5                6                7                8
 
     1        0.122297964E-03  0.873967300E-06 -0.496214508     -0.164300167E-03
     2       -0.656658989E-07  0.225480505E-03 -0.414643821E-04  0.326141711E-05
     3        0.496214595     -0.157890128E-03  0.540148546E-03 -0.728018835    
     4       -0.154537400E-03 -0.134888223E-05  0.728018897      0.349645968E-03
     5        0.239677261E-19  0.941586537E-06 -0.496214688     -0.736367680E-08
     6       -0.941586537E-06  0.949776573E-20  0.194730589E-03  0.432494657E-05
     7        0.496214688     -0.194730589E-03 -0.724082747E-19 -0.728018963    
     8        0.736367680E-08 -0.432494657E-05  0.728018963     -0.150751187E-18
 
 
 PROPERTY: ANGMOM     COMPONENT:*   3
 ORIGIN    :  -0.56035333D-04   0.00000000D+00   0.13406721D+00
 STATE     :       1                2                3                4
 
     1       -0.519518619E-19  0.667379220     -0.123883797E-06  0.262811794E-03
     2       -0.667379220     -0.402083284E-19  0.436313308E-04 -0.561393296    
     3        0.123883797E-06 -0.436313308E-04  0.535524341E-19  0.414336526E-07
     4       -0.262811794E-03  0.561393296     -0.414336526E-07 -0.661616696E-19
     5       -0.237423840E-03  0.667379008     -0.133920420E-06 -0.216934018E-03
     6       -0.667378887     -0.775475747E-03  0.113522540E-03 -0.561393007    
     7       -0.103991644E-05  0.143391317E-03 -0.224921830E-03 -0.853013270E-06
     8       -0.198879974E-03  0.561393177     -0.299953686E-05 -0.415602700E-03
 
 
 PROPERTY: ANGMOM     COMPONENT:*   3
 ORIGIN    :  -0.56035333D-04   0.00000000D+00   0.13406721D+00
 STATE     :       5                6                7                8
 
     1        0.237423840E-03  0.667378887      0.103991644E-05  0.198879974E-03
     2       -0.667379008      0.775475747E-03 -0.143391317E-03 -0.561393177    
     3        0.133920420E-06 -0.113522540E-03  0.224921830E-03  0.299953686E-05
     4        0.216934018E-03  0.561393007      0.853013270E-06  0.415602700E-03
     5        0.407511938E-18  0.667379162      0.921942946E-06  0.342595220E-07
     6       -0.667379162     -0.847004712E-19 -0.160876408E-03 -0.561393344    
     7       -0.921942946E-06  0.160876408E-03 -0.928416615E-19  0.192837473E-05
     8       -0.342595220E-07  0.561393344     -0.192837473E-05 -0.275103108E-19
 
 
 PROPERTY: MLTPV  2   COMPONENT:*   1
 ORIGIN    :  -0.56035333D-04   0.00000000D+00   0.13406721D+00
 STATE     :       1                2                3                4
 
     1       -0.112821693E-15 -0.429234944E-03  0.500022676E-03  0.237116590    
     2        0.429234944E-03  0.208618496E-16 -0.522175143     -0.224436517E-05
     3       -0.500022676E-03  0.522175143      0.129293708E-15 -0.418408899E-05
     4       -0.237116590      0.224436517E-05  0.418408899E-05  0.655685116E-16
     5        0.758987461E-06 -0.468341491E-03  0.361877502E-03  0.237116314    
     6       -0.392730773E-03 -0.840036794E-06 -0.522174526      0.200809662E-03
     7        0.130971337E-03  0.522175019     -0.158845817E-05 -0.868092039E-04
     8       -0.237117873     -0.391268559E-04  0.391627700E-04  0.792083041E-06
 
 
 PROPERTY: MLTPV  2   COMPONENT:*   1
 ORIGIN    :  -0.56035333D-04   0.00000000D+00   0.13406721D+00
 STATE     :       5                6                7                8
 
     1       -0.758987461E-06  0.392730773E-03 -0.130971337E-03  0.237117873    
     2        0.468341491E-03  0.840036794E-06 -0.522175019      0.391268559E-04
     3       -0.361877502E-03  0.522174526      0.158845817E-05 -0.391627700E-04
     4       -0.237116314     -0.200809662E-03  0.868092039E-04 -0.792083041E-06
     5        0.724945960E-16  0.436493325E-04  0.100263715E-04  0.237117621    
     6       -0.436493325E-04 -0.230622129E-15 -0.522174791      0.402532456E-04
     7       -0.100263715E-04  0.522174791      0.187864844E-15  0.469967031E-04
     8       -0.237117621     -0.402532456E-04 -0.469967031E-04 -0.711026785E-17
 
 
 PROPERTY: MLTPV  2   COMPONENT:*   2
 ORIGIN    :  -0.56035333D-04   0.00000000D+00   0.13406721D+00
 STATE     :       1                2                3                4
 
     1        0.145716783E-19  0.425806324E-01  0.192309834E-06 -0.207065029E-04
     2       -0.425806324E-01  0.287379050E-19  0.142677073E-04  0.390772356E-01
     3       -0.192309834E-06 -0.142677073E-04 -0.153104191E-19 -0.777712401E-07
     4        0.207065029E-04 -0.390772356E-01  0.777712401E-07  0.100705112E-18
     5       -0.127452987E-03  0.425805908E-01  0.148337206E-06  0.895076535E-05
     6       -0.425808456E-01 -0.981878348E-04  0.363044930E-04  0.390773072E-01
     7       -0.446018477E-08 -0.181733303E-04 -0.741427282E-04  0.176425068E-07
     8       -0.217495679E-04 -0.390773365E-01  0.249693696E-06 -0.862595241E-04
 
 
 PROPERTY: MLTPV  2   COMPONENT:*   2
 ORIGIN    :  -0.56035333D-04   0.00000000D+00   0.13406721D+00
 STATE     :       5                6                7                8
 
     1        0.127452987E-03  0.425808456E-01  0.446018477E-08  0.217495679E-04
     2       -0.425805908E-01  0.981878348E-04  0.181733303E-04  0.390773365E-01
     3       -0.148337206E-06 -0.363044930E-04  0.741427282E-04 -0.249693696E-06
     4       -0.895076535E-05 -0.390773072E-01 -0.176425068E-07  0.862595241E-04
     5        0.210091122E-19  0.425807681E-01  0.558889552E-07  0.420561717E-04
     6       -0.425807681E-01 -0.726609342E-19  0.315982404E-04  0.390773457E-01
     7       -0.558889552E-07 -0.315982404E-04  0.152554218E-18 -0.192234990E-06
     8       -0.420561717E-04 -0.390773457E-01  0.192234990E-06 -0.520898395E-19
 
 
 PROPERTY: MLTPV  2   COMPONENT:*   3
 ORIGIN    :  -0.56035333D-04   0.00000000D+00   0.13406721D+00
 STATE     :       1                2                3                4
 
     1       -0.159988093E-19  0.268868567E-06 -0.123559433E-01 -0.390942919E-04
     2       -0.268868567E-06 -0.250787008E-19 -0.362125634E-04  0.752052418E-07
     3        0.123559433E-01  0.362125634E-04  0.305188909E-19 -0.553376713E-01
     4        0.390942919E-04 -0.752052418E-07  0.553376713E-01 -0.126050109E-18
     5        0.121273657E-03  0.193269585E-06 -0.123558851E-01 -0.775678147E-05
     6       -0.218071481E-07  0.768446958E-04 -0.368812171E-04  0.156436133E-06
     7        0.123556202E-01  0.418272336E-04  0.618123658E-04 -0.553377200E-01
     8       -0.200746770E-05 -0.259637645E-06  0.553378238E-01  0.770432429E-04
 
 
 PROPERTY: MLTPV  2   COMPONENT:*   3
 ORIGIN    :  -0.56035333D-04   0.00000000D+00   0.13406721D+00
 STATE     :       5                6                7                8
 
     1       -0.121273657E-03  0.218071481E-07 -0.123556202E-01  0.200746770E-05
     2       -0.193269585E-06 -0.768446958E-04 -0.418272336E-04  0.259637645E-06
     3        0.123558851E-01  0.368812171E-04 -0.618123658E-04 -0.553378238E-01
     4        0.775678147E-05 -0.156436133E-06  0.553377200E-01 -0.770432429E-04
     5       -0.289139064E-19  0.287204812E-07 -0.123556966E-01  0.160825113E-04
     6       -0.287204812E-07  0.859401656E-19 -0.383715489E-04  0.367820678E-06
     7        0.123556966E-01  0.383715489E-04 -0.176474106E-18 -0.553378176E-01
     8       -0.160825113E-04 -0.367820678E-06  0.553378176E-01  0.402070852E-19
 
 
 PROPERTY: MLTPV  2   COMPONENT:*   4
 ORIGIN    :  -0.56035333D-04   0.00000000D+00   0.13406721D+00
 STATE     :       1                2                3                4
 
     1       -0.125846872E-15 -0.639795200E-03  0.632184195E-03  0.319264136    
     2        0.639795200E-03  0.723792428E-16 -0.522175276     -0.937527338E-04
     3       -0.632184195E-03  0.522175276      0.152026562E-15 -0.113196886E-03
     4       -0.319264136      0.937527338E-04  0.113196886E-03  0.175546619E-15
     5        0.334725396E-06 -0.552330912E-03  0.345050675E-03  0.319263842    
     6       -0.347424293E-03 -0.112915615E-05 -0.522174590      0.812534542E-04
     7        0.206329610E-03  0.522175116     -0.214687196E-05 -0.168340651E-03
     8       -0.319265191     -0.322726900E-04  0.121102681E-03  0.247070998E-06
 
 
 PROPERTY: MLTPV  2   COMPONENT:*   4
 ORIGIN    :  -0.56035333D-04   0.00000000D+00   0.13406721D+00
 STATE     :       5                6                7                8
 
     1       -0.334725396E-06  0.347424293E-03 -0.206329610E-03  0.319265191    
     2        0.552330912E-03  0.112915615E-05 -0.522175116      0.322726900E-04
     3       -0.345050675E-03  0.522174590      0.214687196E-05 -0.121102681E-03
     4       -0.319263842     -0.812534542E-04  0.168340651E-03 -0.247070998E-06
     5        0.125911631E-15 -0.436041506E-04 -0.843483988E-06  0.319264941    
     6        0.436041506E-04 -0.365747400E-15 -0.522174840     -0.397591429E-04
     7        0.843483988E-06  0.522174840      0.421562787E-15  0.233917788E-06
     8       -0.319264941      0.397591429E-04 -0.233917788E-06 -0.603946552E-16
 
 
 PROPERTY: MLTPV  2   COMPONENT:*   5
 ORIGIN    :  -0.56035333D-04   0.00000000D+00   0.13406721D+00
 STATE     :       1                2                3                4
 
     1       -0.237325568E-16  0.282599570E-03 -0.245199790E-03  0.292598149E-07
     2       -0.282599570E-03 -0.172110290E-16 -0.747221690E-01  0.653424721E-04
     3        0.245199790E-03  0.747221690E-01  0.329008591E-16  0.783664052E-04
     4       -0.292598149E-07 -0.653424721E-04 -0.783664052E-04 -0.717186995E-16
     5       -0.118680532E-06  0.122689247E-03 -0.163167852E-03  0.491999833E-07
     6       -0.709324066E-05 -0.153724002E-06 -0.747220891E-01  0.678955477E-04
     7       -0.105692735E-03  0.747218851E-01 -0.564067909E-07  0.469216810E-04
     8       -0.865291705E-06 -0.794207155E-05 -0.420448152E-04  0.432259585E-07
 
 
 PROPERTY: MLTPV  2   COMPONENT:*   5
 ORIGIN    :  -0.56035333D-04   0.00000000D+00   0.13406721D+00
 STATE     :       5                6                7                8
 
     1        0.118680532E-06  0.709324066E-05  0.105692735E-03  0.865291705E-06
     2       -0.122689247E-03  0.153724002E-06 -0.747218851E-01  0.794207155E-05
     3        0.163167852E-03  0.747220891E-01  0.564067909E-07  0.420448152E-04
     4       -0.491999833E-07 -0.678955477E-04 -0.469216810E-04 -0.432259585E-07
     5       -0.165967388E-16  0.178910484E-04  0.664380491E-05  0.863444929E-06
     6       -0.178910484E-04  0.310928652E-16 -0.747219982E-01  0.165261085E-04
     7       -0.664380491E-05  0.747219982E-01 -0.262031303E-16  0.281918135E-04
     8       -0.863444929E-06 -0.165261085E-04 -0.281918135E-04  0.836134299E-16
 
 
 PROPERTY: MLTPV  2   COMPONENT:*   6
 ORIGIN    :  -0.56035333D-04   0.00000000D+00   0.13406721D+00
 STATE     :       1                2                3                4
 
     1       -0.112037271E-15 -0.724007267E-03  0.699623996E-03  0.199148191    
     2        0.724007267E-03  0.822019757E-16 -0.522175328     -0.109824820E-03
     3       -0.699623996E-03  0.522175328      0.857514194E-16 -0.139332621E-03
     4       -0.199148191      0.109824820E-03  0.139332621E-03  0.251277273E-15
     5        0.442848500E-06 -0.586193738E-03  0.337905394E-03  0.199147904    
     6       -0.432961249E-03 -0.122014963E-05 -0.522174538      0.112181406E-03
     7        0.229182470E-03  0.522175140     -0.200799946E-05 -0.208517864E-03
     8       -0.199149448      0.176853990E-04  0.951743006E-04  0.305291754E-06
 
 
 PROPERTY: MLTPV  2   COMPONENT:*   6
 ORIGIN    :  -0.56035333D-04   0.00000000D+00   0.13406721D+00
 STATE     :       5                6                7                8
 
     1       -0.442848500E-06  0.432961249E-03 -0.229182470E-03  0.199149448    
     2        0.586193738E-03  0.122014963E-05 -0.522175140     -0.176853990E-04
     3       -0.337905394E-03  0.522174538      0.200799946E-05 -0.951743006E-04
     4       -0.199147904     -0.112181406E-03  0.208517864E-03 -0.305291754E-06
     5        0.125566693E-15  0.260114792E-06 -0.114158930E-04  0.199149156    
     6       -0.260114792E-06 -0.401061086E-15 -0.522174841      0.213867461E-06
     7        0.114158930E-04  0.522174841      0.536687756E-15 -0.464664508E-04
     8       -0.199149156     -0.213867461E-06  0.464664508E-04  0.515901355E-17
 
--
 
::    RASSI State    1     Total energy:***********************
::    RASSI State    2     Total energy:***********************
::    RASSI State    3     Total energy:    -398.03710937500000
::    RASSI State    4     Total energy:    -398.36035156250000
::    RASSI State    5     Total energy:    -398.69384765625000
::    RASSI State    6     Total energy:    -398.50683593750000
::    RASSI State    7     Total energy:    -398.48095703125000
::    RASSI State    8     Total energy:    -398.35400390625000
 
 
 
      ****************************************************************************************************
      *                                                                                                  *
      *                                         Spin-free section                                        *
      *                                                                                                  *
      *                 Note: index according to input order, order according to energy.                 *
      *                                                                                                  *
      ****************************************************************************************************
 
 
 
  SPIN-FREE ENERGIES:
  (Shifted by EMIN (a.u.) =       -398.6938476562)
 
 SF State       Relative EMIN(au)   Rel lowest level(eV)    D:o, cm**(-1)
 
     5             0.0000000000        0.0000000000              0.0000
     6             0.1870117188        5.0888481114          41044.3280
     7             0.2128906250        5.7930490250          46724.0914
     4             0.3334960938        9.0748910186          73193.9322
     8             0.3398437500        9.2476195445          74587.0818
     3             0.6567382812       17.8707590336         144137.3922
     2       ******************  ******************  ******************
     1       ******************  ******************  ******************
 
   Spin-free eigenstates in basis of input states:
   -----------------------------------------------
 
     Eigenstate No.    5 energy=   -398.6938476562
 5 0.756183 6 -0.175211 7 0.187973 3 -0.187816 2 0.175043                       
                      
 
[...]
 
        MATRIX ELEMENTS WILL BE COMPUTED FOR THE FOLLOWING ONE-ELECTRON OPERATOR
 S, UNLESS ZERO BY SYMMETRY.
   (Herm=Hermitian, Anti=Antihermitian, Sing=Singlet operator, Trip=Triplet oper
 ator)
     MLTPL  0   1 (HERMSING)     MLTPL  1   1 (HERMSING)     MLTPL  1   2 (HERMSING)
     MLTPL  1   3 (HERMSING)     MLTPL  2   1 (HERMSING)     MLTPL  2   2 (HERMSING)
     MLTPL  2   3 (HERMSING)     MLTPL  2   4 (HERMSING)     MLTPL  2   5 (HERMSING)
     MLTPL  2   6 (HERMSING)     VELOCITY   1 (ANTISING)     VELOCITY   2 (ANTISING)
     VELOCITY   3 (ANTISING)     ANGMOM     1 (ANTISING)     ANGMOM     2 (ANTISING)
     ANGMOM     3 (ANTISING)     MLTPV  2   1 (ANTISING)     MLTPV  2   2 (ANTISING)
     MLTPV  2   3 (ANTISING)     MLTPV  2   4 (ANTISING)     MLTPV  2   5 (ANTISING)
     MLTPV  2   6 (ANTISING)
 
       EIGENSTATES OF A SPIN-FREE HAMILTONIAN WILL BE COMPUTED BASED ON:
 
  A Hamiltonian matrix computed by RASSI.
 
  Nr of states:                     4
 
   State:        1   2   3   4
  JobIph:        1   1   1   1
 Root nr:        1   2   3   4
 
  HAMILTONIAN MATRIX FOR THE ORIGINAL STATES:
 
  Diagonal, with energies
   -398.69153828   -398.50819966   -398.47857530   -398.35192379
 
      OVERLAP MATRIX FOR THE ORIGINAL STATES:
 
  Diagonal, with elements
      1.00000000      1.00000000      1.00000000      1.00000000
 
++ Matrix elements for input states
   --------------------------------
 
  MATRIX ELEMENTS OF 1-ELECTRON OPERATORS
  FOR THE RASSCF INPUT WAVE FUNCTIONS:
 
 
 PROPERTY: MLTPL  0   COMPONENT:*   1
 ORIGIN    :   0.00000000D+00   0.00000000D+00   0.00000000D+00
 STATE     :       1                2                3                4
 
     1       -0.103028697E-12 -0.232564822E-16  0.604773588E-15  0.215468919E-14
     2       -0.232564822E-16 -0.994759830E-13 -0.161515432E-15  0.165031706E-15
     3        0.604773588E-15 -0.161515432E-15 -0.994759830E-13  0.718420989E-15
     4        0.215468919E-14  0.165031706E-15  0.718420989E-15 -0.110134124E-12
 
 
 PROPERTY: MLTPL  1   COMPONENT:*   1
 ORIGIN    :   0.00000000D+00   0.00000000D+00   0.00000000D+00
 STATE     :       1                2                3                4
 
     1       -0.152620972E-03  0.585715199E-09  0.279385144E-01 -0.128180473E-03
     2        0.585715199E-09  0.296889738E-05 -0.324104325E-03 -0.145528658E-05
     3        0.279385144E-01 -0.324104325E-03  0.198529480E-03  0.261107617    
     4       -0.128180473E-03 -0.145528658E-05  0.261107617      0.629333525E-04
 
 
 PROPERTY: MLTPL  1   COMPONENT:*   2
 ORIGIN    :   0.00000000D+00   0.00000000D+00   0.00000000D+00
 STATE     :       1                2                3                4
 
     1        0.129290962E-06  0.181975255E-06 -0.148426233E-04 -0.104237488E-05
     2        0.181975255E-06  0.208206250E-05 -0.632183095     -0.151884659E-07
     3       -0.148426233E-04 -0.632183095     -0.219658528E-05 -0.134015781E-03
     4       -0.104237488E-05 -0.151884659E-07 -0.134015781E-03  0.829804674E-05
 
 
 PROPERTY: MLTPL  1   COMPONENT:*   3
 ORIGIN    :   0.00000000D+00   0.00000000D+00   0.00000000D+00
 STATE     :       1                2                3                4
 
     1        0.361649638     -0.366875167E-06  0.120808875E-04  0.302836147    
     2       -0.366875167E-06 -0.764357861E-02  0.611826546E-06 -0.740178792E-07
     3        0.120808875E-04  0.611826546E-06 -0.469933451      0.110495260E-03
     4        0.302836147     -0.740178792E-07  0.110495260E-03 -0.147614194    
 
 
 PROPERTY: MLTPL  2   COMPONENT:*   1
 ORIGIN    :  -0.56035333D-04   0.00000000D+00   0.13406721D+00
 STATE     :       1                2                3                4
 
     1        -12.4208967      0.597986271E-03 -0.264689218E-03  0.146014315    
     2        0.597986271E-03  -10.4146066      0.183716439E-05  0.483581321E-03
     3       -0.264689218E-03  0.183716439E-05  -10.7499861      0.582828495E-03
     4        0.146014315      0.483581321E-03  0.582828495E-03  -12.6905226    
 
 
 PROPERTY: MLTPL  2   COMPONENT:*   2
 ORIGIN    :  -0.56035333D-04   0.00000000D+00   0.13406721D+00
 STATE     :       1                2                3                4
 
     1        0.130838206E-02  0.583115018      0.924983008E-06  0.233704797E-03
     2        0.583115018     -0.109253590E-02  0.129731436E-02  0.471149803    
     3        0.924983008E-06  0.129731436E-02 -0.944911013E-03 -0.223511975E-05
     4        0.233704797E-03  0.471149803     -0.223511975E-05  0.538598719E-03
 
 
 PROPERTY: MLTPL  2   COMPONENT:*   3
 ORIGIN    :  -0.56035333D-04   0.00000000D+00   0.13406721D+00
 STATE     :       1                2                3                4
 
     1       -0.115255065E-02 -0.393558770E-06  0.313352616      0.166333622E-03
     2       -0.393558770E-06  0.757442628E-03 -0.157332999E-02  0.450252384E-05
     3        0.313352616     -0.157332999E-02  0.137958502E-02 -0.689033998    
     4        0.166333622E-03  0.450252384E-05 -0.689033998     -0.347920261E-03
 
 
 PROPERTY: MLTPL  2   COMPONENT:*   4
 ORIGIN    :  -0.56035333D-04   0.00000000D+00   0.13406721D+00
 STATE     :       1                2                3                4
 
     1        -9.86826785     -0.598490870E-03  0.657040812E-06  0.601738443    
     2       -0.598490870E-03  -12.5434242     -0.465392271E-06 -0.482904059E-03
     3        0.657040812E-06 -0.465392271E-06  -12.5912291      0.263761456E-06
     4        0.601738443     -0.482904059E-03  0.263761456E-06  -11.6388084    
 
 
 PROPERTY: MLTPL  2   COMPONENT:*   5
 ORIGIN    :  -0.56035333D-04   0.00000000D+00   0.13406721D+00
 STATE     :       1                2                3                4
 
     1        0.455145409E-06  0.247089244E-03 -0.161297361E-03  0.260394657E-05
     2        0.247089244E-03  0.952455833E-05  -3.06694332      0.199282332E-03
     3       -0.161297361E-03  -3.06694332     -0.110806623E-04  0.352547367E-03
     4        0.260394657E-05  0.199282332E-03  0.352547367E-03  0.437466729E-04
 
 
 PROPERTY: MLTPL  2   COMPONENT:*   6
 ORIGIN    :  -0.56035333D-04   0.00000000D+00   0.13406721D+00
 STATE     :       1                2                3                4
 
     1        -9.69552262     -0.316633830E-06  0.265858457E-03 -0.247385903    
     2       -0.316633830E-06  -12.2052659      0.211513366E-05  0.238390202E-06
     3        0.265858457E-03  0.211513366E-05  -14.0111735     -0.582425541E-03
     4       -0.247385903      0.238390202E-06 -0.582425541E-03  -11.8671372    
 
 
 PROPERTY: VELOCITY   COMPONENT:*   1
 ORIGIN    :   0.00000000D+00   0.00000000D+00   0.00000000D+00
 STATE     :       1                2                3                4
 
     1        0.316531073E-19 -0.745637132E-07  0.360553950E-01  0.474953897E-04
     2        0.745637132E-07 -0.510113087E-19 -0.280876221E-05  0.222149328E-06
     3       -0.360553950E-01  0.280876221E-05  0.798630523E-19 -0.501677237E-01
     4       -0.474953897E-04 -0.222149328E-06  0.501677237E-01 -0.487326744E-20
 
 
 PROPERTY: VELOCITY   COMPONENT:*   2
 ORIGIN    :   0.00000000D+00   0.00000000D+00   0.00000000D+00
 STATE     :       1                2                3                4
 
     1        0.212930821E-17  0.251466631E-07 -0.186036031E-04  0.239407643E-06
     2       -0.251466631E-07 -0.314079622E-16 -0.544108000E-02  0.342388489E-07
     3        0.186036031E-04  0.544108000E-02 -0.631332977E-17  0.257370914E-04
     4       -0.239407643E-06 -0.342388489E-07 -0.257370914E-04  0.335582019E-18
 
 
 PROPERTY: VELOCITY   COMPONENT:*   3
 ORIGIN    :   0.00000000D+00   0.00000000D+00   0.00000000D+00
 STATE     :       1                2                3                4
 
     1       -0.385470522E-16 -0.145012851E-06  0.153416931E-04 -0.112227008    
     2        0.145012851E-06  0.360780501E-16 -0.108026080E-07  0.188751694E-07
     3       -0.153416931E-04  0.108026080E-07 -0.147908081E-15 -0.212590547E-04
     4        0.112227008     -0.188751694E-07  0.212590547E-04 -0.302680115E-16
 
 
 PROPERTY: ANGMOM     COMPONENT:*   1
 ORIGIN    :  -0.56035333D-04   0.00000000D+00   0.13406721D+00
 STATE     :       1                2                3                4
 
     1       -0.156613819E-16 -0.282282606E-03 -0.254513024E-03 -0.325542940E-05
     2        0.282282606E-03 -0.476347851E-16 -0.379899357      0.237419185E-03
     3        0.254513024E-03  0.379899357      0.238877591E-16 -0.373490110E-03
     4        0.325542940E-05 -0.237419185E-03  0.373490110E-03  0.106039464E-15
 
 
 PROPERTY: ANGMOM     COMPONENT:*   2
 ORIGIN    :  -0.56035333D-04   0.00000000D+00   0.13406721D+00
 STATE     :       1                2                3                4
 
     1        0.239677261E-19  0.941586537E-06 -0.496214688     -0.736367680E-08
     2       -0.941586537E-06  0.949776573E-20  0.194730589E-03  0.432494657E-05
     3        0.496214688     -0.194730589E-03 -0.724082747E-19 -0.728018963    
     4        0.736367680E-08 -0.432494657E-05  0.728018963     -0.150751187E-18
 
 
 PROPERTY: ANGMOM     COMPONENT:*   3
 ORIGIN    :  -0.56035333D-04   0.00000000D+00   0.13406721D+00
 STATE     :       1                2                3                4
 
     1        0.407511938E-18  0.667379162      0.921942946E-06  0.342595220E-07
     2       -0.667379162     -0.847004712E-19 -0.160876408E-03 -0.561393344    
     3       -0.921942946E-06  0.160876408E-03 -0.928416615E-19  0.192837473E-05
     4       -0.342595220E-07  0.561393344     -0.192837473E-05 -0.275103108E-19
 
 
 PROPERTY: MLTPV  2   COMPONENT:*   1
 ORIGIN    :  -0.56035333D-04   0.00000000D+00   0.13406721D+00
 STATE     :       1                2                3                4
 
     1        0.724945960E-16  0.436493325E-04  0.100263715E-04  0.237117621    
     2       -0.436493325E-04 -0.230622129E-15 -0.522174791      0.402532456E-04
     3       -0.100263715E-04  0.522174791      0.187864844E-15  0.469967031E-04
     4       -0.237117621     -0.402532456E-04 -0.469967031E-04 -0.711026785E-17
 
 
 PROPERTY: MLTPV  2   COMPONENT:*   2
 ORIGIN    :  -0.56035333D-04   0.00000000D+00   0.13406721D+00
 STATE     :       1                2                3                4
 
     1        0.210091122E-19  0.425807681E-01  0.558889552E-07  0.420561717E-04
     2       -0.425807681E-01 -0.726609342E-19  0.315982404E-04  0.390773457E-01
     3       -0.558889552E-07 -0.315982404E-04  0.152554218E-18 -0.192234990E-06
     4       -0.420561717E-04 -0.390773457E-01  0.192234990E-06 -0.520898395E-19
 
 
 PROPERTY: MLTPV  2   COMPONENT:*   3
 ORIGIN    :  -0.56035333D-04   0.00000000D+00   0.13406721D+00
 STATE     :       1                2                3                4
 
     1       -0.289139064E-19  0.287204812E-07 -0.123556966E-01  0.160825113E-04
     2       -0.287204812E-07  0.859401656E-19 -0.383715489E-04  0.367820678E-06
     3        0.123556966E-01  0.383715489E-04 -0.176474106E-18 -0.553378176E-01
     4       -0.160825113E-04 -0.367820678E-06  0.553378176E-01  0.402070852E-19
 
 
 PROPERTY: MLTPV  2   COMPONENT:*   4
 ORIGIN    :  -0.56035333D-04   0.00000000D+00   0.13406721D+00
 STATE     :       1                2                3                4
 
     1        0.125911631E-15 -0.436041506E-04 -0.843483988E-06  0.319264941    
     2        0.436041506E-04 -0.365747400E-15 -0.522174840     -0.397591429E-04
     3        0.843483988E-06  0.522174840      0.421562787E-15  0.233917788E-06
     4       -0.319264941      0.397591429E-04 -0.233917788E-06 -0.603946552E-16
 
 
 PROPERTY: MLTPV  2   COMPONENT:*   5
 ORIGIN    :  -0.56035333D-04   0.00000000D+00   0.13406721D+00
 STATE     :       1                2                3                4
 
     1       -0.165967388E-16  0.178910484E-04  0.664380491E-05  0.863444929E-06
     2       -0.178910484E-04  0.310928652E-16 -0.747219982E-01  0.165261085E-04
     3       -0.664380491E-05  0.747219982E-01 -0.262031303E-16  0.281918135E-04
     4       -0.863444929E-06 -0.165261085E-04 -0.281918135E-04  0.836134299E-16
 
 
 PROPERTY: MLTPV  2   COMPONENT:*   6
 ORIGIN    :  -0.56035333D-04   0.00000000D+00   0.13406721D+00
 STATE     :       1                2                3                4
 
     1        0.125566693E-15  0.260114792E-06 -0.114158930E-04  0.199149156    
     2       -0.260114792E-06 -0.401061086E-15 -0.522174841      0.213867461E-06
     3        0.114158930E-04  0.522174841      0.536687756E-15 -0.464664508E-04
     4       -0.199149156     -0.213867461E-06  0.464664508E-04  0.515901355E-17
 
--
 
::    RASSI State    1     Total energy:    -398.69153828080067
::    RASSI State    2     Total energy:    -398.50819965879310
::    RASSI State    3     Total energy:    -398.47857529997896
::    RASSI State    4     Total energy:    -398.35192378735837
 
 
 
      ****************************************************************************************************
      *                                                                                                  *
      *                                         Spin-free section                                        *
      *                                                                                                  *
      *                 Note: index according to input order, order according to energy.                 *
      *                                                                                                  *
      ****************************************************************************************************
 
 
 
  SPIN-FREE ENERGIES:
  (Shifted by EMIN (a.u.) =       -398.6915382808)
 
 SF State       Relative EMIN(au)   Rel lowest level(eV)    D:o, cm**(-1)
 
     1             0.0000000000        0.0000000000              0.0000
     2             0.1833386220        4.9888980573          40238.1765
     3             0.2129629808        5.7950179272          46739.9717
     4             0.3396144934        9.2413811558          74536.7658
 
++ Dipole transition strengths (spin-free states):
   -----------------------------------------------
     for osc. strength at least  1.00000000E-05
 
      From   To        Osc. strength     Einstein coefficients Ax, Ay, Az (sec-1)    Total A (sec-1)
     -----------------------------------------------------------------------------------------------
         1    3       1.10820391E-04  1.61487382E+05  4.55777944E-02  3.01946262E-02  1.61487457E+05
         1    4       2.07639731E-02  1.37854838E+01  9.11645819E-04  7.69473551E+07  7.69473689E+07
         2    3       7.89302668E-03  5.84973452E-02  2.22562637E+05  2.08460274E-07  2.22562696E+05
         3    4       5.75649849E-03  2.96681078E+06  7.81560593E-01  5.31297860E-01  2.96681210E+06
     -----------------------------------------------------------------------------------------------
--
 
++ Velocity transition strengths (spin-free states):
   -------------------------------------------------
     for osc. strength at least  1.00000000E-05
 
      From   To        Osc. strength     Einstein coefficients Ax, Ay, Az (sec-1)    Total A (sec-1)
     -----------------------------------------------------------------------------------------------
         1    3       4.06954011E-03  5.93013058E+06  1.57876639E+00  1.07366878E+00  5.93013323E+06
         1    4       2.47239226E-02  1.64100064E+01  4.16947967E-04  9.16221785E+07  9.16221949E+07
         2    3       6.66239105E-04  5.00608859E-03  1.87861942E+04  7.40501286E-08  1.87861992E+04
         3    4       1.32479092E-02  6.82776866E+06  1.79700356E+00  1.22607745E+00  6.82777168E+06
     -----------------------------------------------------------------------------------------------
--
 
++ Length and velocity gauge comparison (spin-free states):
   --------------------------------------------------------
 
 --------------------------------------------------
 A comparison between the dipole oscillator strengths in 
 length and velocity gauge will be performed
 
     All dipole oscillator differences above the tolerance of   1.00000000E-01  will be printed 
 
 Due to basis set deficiency these oscillator may be problematic 
 
 The tolerance is defined as ABS(1-O_l/O_v) 
 O_l : dipole oscillator strength in length gauge
 O_p : dipole oscillator strength in velocity gauge
 --------------------------------------------------
 
  Problematic transitions have been found
 
      From   To       Difference (%) Osc. st. (len.) Osc. st. (vel.)
     ---------------------------------------------------------------
         1    3            97.276833  1.10820391E-04  4.06954011E-03
         1    4            16.016672  2.07639731E-02  2.47239226E-02
         2    3          1084.713809  7.89302668E-03  6.66239105E-04
         3    4            56.547872  5.75649849E-03  1.32479092E-02
     ---------------------------------------------------------------
 
 Number of problematic transitions =                      4
 
--
 
 Electric-dipole - electric-octupole not included
 Electric-dipole - magnetic-quadrupole not included
 
 
      ****************************************************************************************************
      *                                                                                                  *
      *                                    Special properties section                                    *
      *                                                                                                  *
      ****************************************************************************************************
 
 
++ I/O STATISTICS
 
  I. General I/O information
  - - - - - - - - - - - - - - - - - - - - - - - - - - - - - - - - - - - - - - - - - - -
  Unit  Name          Flsize      Write/Read            MBytes           Write/Read
                      (MBytes)       Calls              In/Out           Time, sec.
  - - - - - - - - - - - - - - - - - - - - - - - - - - - - - - - - - - - - - - - - - - -
   1  ANNI              0.00 .       0/       0 .      0.0/      0.0 .       0/       0
   2  RUNFILE           0.24 .     175/    1668 .      1.2/     12.0 .       0/       0
   3  ONEINT            1.45 .       0/     713 .      0.0/    652.2 .       0/       0
   4  JOB001            1.22 .       0/      46 .      0.0/      0.2 .       0/       0
   5  CHRED             0.01 .       0/       6 .      0.0/      0.0 .       0/       0
   6  CHVEC1            0.36 .       0/       5 .      0.0/      0.4 .       0/       0
   7  CHORST            0.00 .       0/      12 .      0.0/      0.0 .       0/       0
   8  CHOMAP            0.00 .       0/       0 .      0.0/      0.0 .       0/       0
   9  CHODIAG           0.00 .       0/       1 .      0.0/      0.0 .       0/       0
  - - - - - - - - - - - - - - - - - - - - - - - - - - - - - - - - - - - - - - - - - - -
   *  TOTAL             3.29 .     175/    2451 .      1.2/    664.7 .       0/       0
  - - - - - - - - - - - - - - - - - - - - - - - - - - - - - - - - - - - - - - - - - - -
 
  II. I/O Access Patterns
  - - - - - - - - - - - - - - - - - - - -
  Unit  Name               % of random
                         Write/Read calls
  - - - - - - - - - - - - - - - - - - - -
   1  ANNI                 0.0/   0.0
   2  RUNFILE             28.6/  10.7
   3  ONEINT               0.0/  98.3
   4  JOB001               0.0/  76.1
   5  CHRED                0.0/  16.7
   6  CHVEC1               0.0/   0.0
   7  CHORST               0.0/   0.0
   8  CHOMAP               0.0/   0.0
   9  CHODIAG              0.0/   0.0
  - - - - - - - - - - - - - - - - - - - -
--
--- Stop Module: rassi at Fri Mar 22 11:35:37 2024 /rc=_RC_ALL_IS_WELL_ ---
--- Module rassi spent 1 second ---

>>> COPY MOLCAS.rassi.h5 MOLCAS.rassi.1.h5

.##################.
.# Happy landing! #.
.##################.

    Timing: Wall=9.78 User=8.52 System=1.17
