   This run of MOLCAS is using the pymolcas driver

                             OPE
                             OPE          NMOL  CASOP  ENMOLC A   SO
                 OPE        NMOLC        AS  OP EN  MO LC     AS  OP
                OPENM       OL CA        SO  PE NM  OL CA     SOP EN
                OP EN      MO   LC       AS  OP ENMOL  CASO   PENMOL
                OP  EN     MO   LC       AS  OP EN     MO     LC ASO
               OP   E  NMOL  C  AS       OP  EN MO     LC     AS  OP
               OP  E   NMO   LC AS        OPEN  MO     LCASOP EN   M
               O  PEN   MO  LCA  SO
            OPE   NMO   L   CAS    OP
        OPENMOL  CASOP     ENMOL   CASOPE
     OPENMOLCA   SOPENMOLCASOPEN   MOLCASOPE
    OPENMOLCAS   OP           EN   MOL    CAS
    OPENMOLCAS       OP  ENM        O     LCA
    OPENMOLCAS    OPEN  MOLCASO     P  E  NMO
    OPENMOLCAS     OP               E  N  MOL
    OPENMOLCA   SO           PENM   O  L  CAS    OPEN    MO    LCAS
    OPENMOLCA   SOP           ENM   O  L  CAS   OP  EN  MOLC  AS   O
    OPENMOLCA   SOPE           NM      O  LCA   S      OP  EN MO
    OPENMOLC                AS         O  PEN   M      OL  CA  SOPE
    OPENMO        LCASOPE  NMOL        C  ASO   P      ENMOLC     AS
    OPE     NMO      LCA  SO     P     E   NM   OL  CA SO  PE N   MO
          OPENMOLCA            SOPE   NMO        LCAS  O    P  ENMO
     OPENMOLCASOPENMOLCASOPENMOLCASOPENMOLCA
        OPENMOLCASOPENMOLCASOPENMOLCASOPE
            OPENMOLCASOPENMOLCASOPENM
               OPENMOLCASOPENMOLCA        version: v23.10
                   OPENMOLCASO
                       OPE                tag:

 OpenMolcas is free software; you can redistribute it and/or modify it
 under the terms of the GNU Lesser General Public License version 2.1.
 OpenMolcas is distributed in the hope that it will be useful, but it
 is provided "as is" and without any express or implied warranties.
 For more details see the full text of the license in the file
 LICENSE or in <http://www.gnu.org/licenses/>.

                 Copyright (C) The OpenMolcas Authors
           For the author list and the recommended citation,
                   consult the file CONTRIBUTORS.md

           *************************************************
           * pymolcas version py2.25                       *
           *   build 2b27fa14244bdc32cb1957e6230cd793      *
           *   (after the EMIL interpreter by V. Veryazov) *
           *************************************************

configuration info
------------------
Host name: manganese.itc.univie.ac.at (Linux)
C Compiler ID: Clang
C flags: -std=gnu99
Fortran Compiler ID: Intel
Fortran flags: -fpp -i8 -heap-arrays
Definitions: _MOLCAS_;_I8_;_LINUX_
Parallel: OFF (GA=OFF)


   ---------------------------------------------------------------------------
  |
  |           Project: MOLCAS
  |    Submitted from: /public/manganese/scratch/tmp/sascha.925337/WORK/master
  |      Scratch area: /public/manganese/scratch/tmp/sascha.925337/WORK/master
  |   Save outputs to: WORKDIR
  |            Molcas: /usr/license/openmolcas/v23.10
  |
  | Scratch area is NOT empty
  |
  |        MOLCASMEM = 10000
  |    MOLCAS_DRIVER = /usr/license/openmolcas/v23.10/pymolcas
  |    MOLCAS_NPROCS = 1
  |    MOLCAS_SOURCE = /usr/license/openmolcas/v23.10
  | MOLCAS_STRUCTURE = 0
  |
   ---------------------------------------------------------------------------

++ ---------   Input file   ---------

&GATEWAY
COORD=MOLCAS.xyz
GROUP=NOSYM
BASIS=cc-pvdz
AMFI
angmom
0 0 0
BASLIB
/user/sascha/development/eci/sharc_main/examples/SHARC_MOLCAS/basisset

RICD
CDTHreshold=0.0001

&SEWARD

>>> COPY /public/manganese/scratch/tmp/sascha.925337/SAVE/MOLCAS.1.JobIph.0 JOBOLD

&RASSCF
SPIN=1
NACTEL=8 0 0
INACTIVE=5
RAS2=6
ITERATIONS=200,100
CIROOT=6 6 1
ORBLISTING=NOTHING
PRWF=0.1
THRS=0.000000010000 0.000100000000 0.000100000000
JOBIPH

>>> COPY MOLCAS.rasscf.molden MOLCAS.1.molden

>>> COPY MOLCAS.JobIph MOLCAS.1.JobIph

>>> COPY /public/manganese/scratch/tmp/sascha.925337/SAVE/MOLCAS.2.JobIph.0 JOBOLD

&RASSCF
SPIN=2
NACTEL=7 0 0
INACTIVE=5
RAS2=6
ITERATIONS=200,100
CIROOT=4 4 1
ORBLISTING=NOTHING
PRWF=0.1
THRS=0.000000010000 0.000100000000 0.000100000000
JOBIPH

>>> COPY MOLCAS.rasscf.molden MOLCAS.2.molden

>>> COPY MOLCAS.JobIph MOLCAS.2.JobIph

>>> COPY /public/manganese/scratch/tmp/sascha.925337/SAVE/MOLCAS.1.JobIph.0 JOB001

>>> COPY MOLCAS.1.JobIph JOB002

&RASSI
NROFJOBIPHS
2 6 6
1 2 3 4 5 6
1 2 3 4 5 6
MEIN
OVERLAPS

>>> COPY MOLCAS.rassi.h5 MOLCAS.rassi.ovlp.1.h5

>>> COPY MOLCAS.1.JobIph JOB001

&RASSI
NROFJOBIPHS
1 6
1 2 3 4 5 6
MEIN

>>> COPY MOLCAS.rassi.h5 MOLCAS.rassi.1.h5

>>> COPY /public/manganese/scratch/tmp/sascha.925337/SAVE/MOLCAS.2.JobIph.0 JOB001

>>> COPY MOLCAS.2.JobIph JOB002

&RASSI
NROFJOBIPHS
2 2 2
1 2
1 2
MEIN
OVERLAPS

>>> COPY MOLCAS.rassi.h5 MOLCAS.rassi.ovlp.2.h5

>>> COPY MOLCAS.2.JobIph JOB001

&RASSI
NROFJOBIPHS
1 2
1 2
MEIN

>>> COPY MOLCAS.rassi.h5 MOLCAS.rassi.2.h5

>>> COPY MOLCAS.1.JobIph JOB001

>>> COPY MOLCAS.2.JobIph JOB002

&RASSI
NROFJOBIPHS
2 6 2
1 2 3 4 5 6
1 2
MEIN
SPINORBIT
SOCOUPLING=0.0d0
EJOB

-- ----------------------------------

--- Start Module: gateway at Fri Mar 22 11:45:52 2024 ---
 
()()()()()()()()()()()()()()()()()()()()()()()()()()()()()()()()()()()()()()()()()()()()()()()()()()

                                              &GATEWAY

                                   only a single process is used
                       available to each process: 10 GB of memory, 1 thread?
                                            pid: 1867229
()()()()()()()()()()()()()()()()()()()()()()()()()()()()()()()()()()()()()()()()()()()()()()()()()()
 
 
 
 Basis Set     1 Label: S.CC-PVDZ
 Basis set is read from library:/user/sascha/development/eci/sharc_main/examples/SHARC_MOLCAS/basisset 
 
 
 Basis Set     2 Label: H.CC-PVDZ
 Basis set is read from library:/user/sascha/development/eci/sharc_main/examples/SHARC_MOLCAS/basisset 
 
++    Symmetry information:
      ---------------------
 
                    Character Table for C1 
 
                             E  
                    a        1  x, y, xy, Rz, z, xz, Ry, yz, Rx, I
--
 
 
++    Basis set information:
      ----------------------
 
 
      Basis set label: S.CC-PVDZ.........
 
      Electronic valence basis set:
      ------------------
      Associated Effective Charge  16.000000 au
      Associated Actual Charge     16.000000 au
      Nuclear Model: Point charge
 
      Shell  nPrim  nBasis  Cartesian Spherical Contaminant
         s      12       4        X                  
         p       8       3        X                  
         d       1       1                 X         
 
 
      Basis set label: H.CC-PVDZ.........
 
      Electronic valence basis set:
      ------------------
      Associated Effective Charge   1.000000 au
      Associated Actual Charge      1.000000 au
      Nuclear Model: Point charge
 
      Shell  nPrim  nBasis  Cartesian Spherical Contaminant
         s       4       2        X                  
         p       1       1        X                  
--
 
 
++    Molecular structure info:
      -------------------------
 
                    ************************************************ 
                    **** Cartesian Coordinates / Bohr, Angstrom **** 
                    ************************************************ 
 
     Center  Label                x              y              z                     x              y              z
        1      S1               0.000000       0.000000       0.001589              0.000000       0.000000       0.000841
        2      H2               0.000000       1.842103       2.235421              0.000000       0.974799       1.182934
        3      H3              -0.001890      -1.842103       2.235421             -0.001000      -0.974799       1.182934
 
                    *************************************** 
                    *    InterNuclear Distances / Bohr    * 
                    *************************************** 
 
               1 S1            2 H2            3 H3    
    1 S1       0.000000
    2 H2       2.895401        0.000000
    3 H3       2.895402        3.684207        0.000000
 
                    ******************************************* 
                    *    InterNuclear Distances / Angstrom    * 
                    ******************************************* 
 
               1 S1            2 H2            3 H3    
    1 S1       0.000000
    2 H2       1.532180        0.000000
    3 H3       1.532181        1.949598        0.000000
 
                    ************************************** 
                    *    Valence Bond Angles / Degree    * 
                    ************************************** 
                          Atom centers                 Phi
                      2 H2       1 S1       3 H3        79.02
--
 
 
            Nuclear Potential Energy             11.32343573 au
 
--- Stop Module: gateway at Fri Mar 22 11:45:52 2024 /rc=_RC_ALL_IS_WELL_ ---

--- Start Module: seward at Fri Mar 22 11:45:52 2024 ---
 
()()()()()()()()()()()()()()()()()()()()()()()()()()()()()()()()()()()()()()()()()()()()()()()()()()

                                              &SEWARD

                                   only a single process is used
                       available to each process: 10 GB of memory, 1 thread?
                                            pid: 1867233
()()()()()()()()()()()()()()()()()()()()()()()()()()()()()()()()()()()()()()()()()()()()()()()()()()
 
               SEWARD will generate:
                  Multipole Moment integrals up to order  2
                  Kinetic Energy integrals
                  Nuclear Attraction integrals (point charge)
                  One-Electron Hamiltonian integrals
                  Velocity integrals
                  Orbital angular momentum around ( 0.0000  0.0000  0.0000 )
                  Velocity quadrupole around (-0.0001  0.0000  0.1341 )
                  Atomic mean-field integrals
                  RI decomposed two-electron repulsion integrals stored Cholesky style
                   - acCD auxiliary basis
                   - CD Threshold:   0.10E-03
 
                   Integrals are discarded if absolute value <: 0.10E-13
                   Integral cutoff threshold is set to       <: 0.10E-15
 
            Nuclear Potential Energy             11.32343573 au
 
 
      Basis set specifications :
      Symmetry species         a  
      Basis functions           28
 
 
      Input file to MOLDEN was generated!
 
--- Stop Module: seward at Fri Mar 22 11:45:53 2024 /rc=_RC_ALL_IS_WELL_ ---

>>> COPY /public/manganese/scratch/tmp/sascha.925337/SAVE/MOLCAS.1.JobIph.0 JOBOLD

*** symbolic link created: INPORB -> MOLCAS.GssOrb
--- Start Module: rasscf at Fri Mar 22 11:45:53 2024 ---
 
()()()()()()()()()()()()()()()()()()()()()()()()()()()()()()()()()()()()()()()()()()()()()()()()()()

                                              &RASSCF

                                   only a single process is used
                       available to each process: 10 GB of memory, 1 thread?
                                            pid: 1867240
()()()()()()()()()()()()()()()()()()()()()()()()()()()()()()()()()()()()()()()()()()()()()()()()()()
 
 
      Header of the ONEINT file:
      --------------------------
      
      Integrals generated by Gateway/Seward, Fri Mar 22 11:45:53 2024
 
 
      OrdInt status: non-squared
 
 
      Cartesian coordinates in Angstrom:
      -----------------------------------------------------
      No.  Label        X            Y            Z        
      -----------------------------------------------------
       1   S1         0.00000000   0.00000000   0.00084100
       2   H2         0.00000000   0.97479900   1.18293400
       3   H3        -0.00100000  -0.97479900   1.18293400
      -----------------------------------------------------
      Nuclear repulsion energy =   11.32343573
 
++    Wave function specifications:
      -----------------------------
 
      Number of closed shell electrons          10
      Number of electrons in active shells       8
      Max number of holes in RAS1 space          0
      Max nr of electrons in RAS3 space          0
      Number of inactive orbitals                5
      Number of active orbitals                  6
      Number of secondary orbitals              17
      Spin quantum number                      0.0
      State symmetry                             1
--
 
++    Orbital specifications:
      -----------------------
 
      Symmetry species                           1
                                                 a
      Frozen orbitals                            0
      Inactive orbitals                          5
      Active orbitals                            6
      RAS1 orbitals                              0
      RAS2 orbitals                              6
      RAS3 orbitals                              0
      Secondary orbitals                        17
      Deleted orbitals                           0
      Number of basis functions                 28
--
 
++    CI expansion specifications:
      ----------------------------
 
      Number of CSFs                           105
      Number of determinants                   120
      Number of root(s) required                 6
      Root chosen for geometry opt.              6
      CI roots used                              1     2     3     4     5     6
      weights                                0.167 0.167 0.167 0.167 0.167 0.167
      highest root included in the CI            6
      max. size of the explicit Hamiltonian    105
--
 
++    Optimization specifications:
      ----------------------------
 
      RASSCF algorithm: LK RI/DF
      Maximum number of macro iterations       200
      Maximum number of SX iterations          100
      Threshold for RASSCF energy            0.100E-07
      Threshold for max MO rotation          0.100E-03
      Threshold for max BLB element          0.100E-03
      Level shift parameter                  0.500E+00
      Make Quasi-Newton update
--
 
      The MO-coefficients are taken from the file:
      JOBOLD
      Title:(No title given)                                                        
 
      Total molecular charge    0.00
 
      ************************************************************************************************************************
      *                                                                                                                      *
      *                                            Wave function control section                                             *
      *                                                                                                                      *
      ************************************************************************************************************************
 
 
                                         RASSCF iterations: Energy and convergence statistics
                                         ----------------------------------------------------
 
      Iter CI   SX   CI       RASSCF       Energy    max ROT     max BLB   max BLB  Level Ln srch  Step   QN   Walltime
          iter iter root      energy       change     param      element    value   shift minimum  type update hh:mm:ss
 Nr of preliminary CI iterations:   1
        1   1    3    0  -398.44308902    0.00E+00  -0.56E-04    9  13 1 -0.71E-04   0.00   0.00    SX    NO    0:00:00
        2   1    3    0  -398.44308904   -0.26E-07*  0.11E-04    9  13 1 -0.16E-04   0.00   0.00    SX    NO    0:00:00
        3   1    2    0  -398.44308904   -0.36E-09  -0.26E-05    9  13 1 -0.39E-05   0.00   0.00    SX    NO    0:00:00
        4   1    2    0  -398.44308904   -0.43E-10  -0.68E-06    9  13 1 -0.10E-05   0.00   0.00    SX    NO    0:00:00
      Convergence after  4 iterations
        5   1    2    0  -398.44308904    0.80E-10  -0.68E-06    9  12 1 -0.28E-06   0.00   0.00    SX    NO    0:00:00
 
      ************************************************************************************************************************
                                                      Wave function printout:
                       occupation of active orbitals, and spin coupling of open shells (u,d: Spin up or down)
      ************************************************************************************************************************
 
      Note: transformation to natural orbitals
      has been made, which may change the order of the CSFs.
 
      printout of CI-coefficients larger than  0.10 for root  1
      energy=    -398.691538
      conf/sym  111111     Coeff  Weight
             1  222200  -0.97171 0.94422
            15  2u22d0   0.10924 0.01193
            38  2ud2ud   0.10920 0.01192
 
      printout of CI-coefficients larger than  0.10 for root  2
      energy=    -398.508200
      conf/sym  111111     Coeff  Weight
             2  222ud0   0.97539 0.95140
            10  22udud   0.10906 0.01189
 
      printout of CI-coefficients larger than  0.10 for root  3
      energy=    -398.478575
      conf/sym  111111     Coeff  Weight
             4  222u0d  -0.96184 0.92514
             8  22ud20  -0.11302 0.01277
            18  2u2dud  -0.16520 0.02729
            51  202u2d  -0.10588 0.01121
 
      printout of CI-coefficients larger than  0.10 for root  4
      energy=    -398.351924
      conf/sym  111111     Coeff  Weight
             9  22u20d  -0.74345 0.55271
            15  2u22d0   0.59730 0.35677
            31  220220  -0.17634 0.03110
            52  202202   0.13930 0.01940
 
      printout of CI-coefficients larger than  0.10 for root  5
      energy=    -398.345878
      conf/sym  111111     Coeff  Weight
             7  22u2d0   0.67353 0.45365
            17  2u220d  -0.67543 0.45621
            32  2202ud   0.13691 0.01875
            37  2ud220  -0.14811 0.02194
            40  2ud202   0.15180 0.02304
            50  2022ud  -0.10075 0.01015
 
      printout of CI-coefficients larger than  0.10 for root  6
      energy=    -398.282419
      conf/sym  111111     Coeff  Weight
             7  22u2d0   0.69812 0.48737
            17  2u220d   0.69811 0.48736
 
      Natural orbitals and occupation numbers for root  1
      sym 1:   1.997304   1.961193   1.964608   1.998624   0.048336   0.029935
 
      Natural orbitals and occupation numbers for root  2
      sym 1:   1.998912   1.986432   1.961516   1.000000   0.999157   0.053982
 
      Natural orbitals and occupation numbers for root  3
      sym 1:   1.998795   1.940168   1.971877   1.000000   0.096915   0.992244
 
      Natural orbitals and occupation numbers for root  4
      sym 1:   1.977020   1.582918   1.363576   1.983678   0.471470   0.621338
 
      Natural orbitals and occupation numbers for root  5
      sym 1:   1.992380   1.465189   1.450376   1.997413   0.550774   0.543869
 
      Natural orbitals and occupation numbers for root  6
      sym 1:   1.990636   1.498251   1.485250   1.998508   0.523339   0.504015
 
      ************************************************************************************************************************
      *                                                                                                                      *
      *                                                    Final results                                                     *
      *                                                                                                                      *
      ************************************************************************************************************************
 
 
++    Wave function specifications:
      -----------------------------
 
      Number of closed shell electrons          10
      Number of electrons in active shells       8
      Max number of holes in RAS1 space          0
      Max nr of electrons in RAS3 space          0
      Number of inactive orbitals                5
      Number of active orbitals                  6
      Number of secondary orbitals              17
      Spin quantum number                      0.0
      State symmetry                             1
--
 
++    Orbital specifications:
      -----------------------
 
      Symmetry species                           1
                                                 a
      Frozen orbitals                            0
      Inactive orbitals                          5
      Active orbitals                            6
      RAS1 orbitals                              0
      RAS2 orbitals                              6
      RAS3 orbitals                              0
      Secondary orbitals                        17
      Deleted orbitals                           0
      Number of basis functions                 28
--
 
++    CI expansion specifications:
      ----------------------------
 
      Number of CSFs                           105
      Number of determinants                   120
      Number of root(s) required                 6
      CI roots used                              1     2     3     4     5     6
      weights                                0.167 0.167 0.167 0.167 0.167 0.167
      highest root included in the CI            6
      Root passed to geometry opt.               6
--
 
++    Final optimization conditions:
      ------------------------------
 
      Average CI energy                            -398.44308904
      RASSCF energy for state  6                   -398.28241942
      Super-CI energy                                -0.00000000
      RASSCF energy change                            0.00000000
      Max change in MO coefficients               0.166E-05
      Max non-diagonal density matrix element    -0.685E-06
      Maximum BLB matrix element                 -0.278E-06
      (orbital pair   9,  12 in symmetry   1)
      Norm of electronic gradient            0.933E-01
--
 
 
      Final state energy(ies):
      ------------------------
 
::    RASSCF root number  1 Total energy:   -398.69153828
::    RASSCF root number  2 Total energy:   -398.50819966
::    RASSCF root number  3 Total energy:   -398.47857530
::    RASSCF root number  4 Total energy:   -398.35192379
::    RASSCF root number  5 Total energy:   -398.34587781
::    RASSCF root number  6 Total energy:   -398.28241942
      Von Neumann Entropy (Root   1) =  0.27649
 

      Mulliken population analysis for root number:  1
      -----------------------------------------------
 
 
++    Molecular charges:
      ------------------
 
      Mulliken charges per centre
      ---------------------------
 
                S1      H2      H3    
      Total   16.1051  0.9475  0.9475
 
      N-E     -0.1051  0.0525  0.0525
 
      Total electronic charge=   18.000000
 
      Total            charge=   -0.000000
--
 
 

      Expectation values of various properties for root number:  1
      -----------------------------------------------------------
 
 
++    Molecular properties:
      ---------------------
 
      Charge (e):
                      =   -0.0000
      Dipole Moment (Debye):
      Origin of the operator (Ang)=    0.0000    0.0000    0.0000
                   X= -3.8792E-04               Y=  3.2862E-07               Z=  9.1922E-01           Total=  9.1922E-01
      Quadrupole Moment (Debye*Ang):
      Origin of the operator (Ang)=   -0.0000    0.0000    0.0709
                  XX= -1.6707E+01              XY=  1.7598E-03              XZ= -1.5502E-03              YY= -1.3273E+01
                  YZ=  6.1219E-07              ZZ= -1.3041E+01
      In traceless form (Debye*Ang)
                  XX= -3.5495E+00              XY=  2.6397E-03              XZ= -2.3253E-03              YY=  1.6005E+00
                  YZ=  9.1828E-07              ZZ=  1.9490E+00
--
 
      Von Neumann Entropy (Root   2) =  1.17888
 

      Mulliken population analysis for root number:  2
      -----------------------------------------------
 
 
++    Molecular charges:
      ------------------
 
      Mulliken charges per centre
      ---------------------------
 
                S1      H2      H3    
      Total   15.9281  1.0359  1.0359
 
      N-E      0.0719 -0.0359 -0.0359
 
      Total electronic charge=   18.000000
 
      Total            charge=   -0.000000
--
 
 

      Expectation values of various properties for root number:  2
      -----------------------------------------------------------
 
 
++    Molecular properties:
      ---------------------
 
      Charge (e):
                      =   -0.0000
      Dipole Moment (Debye):
      Origin of the operator (Ang)=    0.0000    0.0000    0.0000
                   X=  7.5462E-06               Y=  5.2921E-06               Z= -1.9428E-02           Total=  1.9428E-02
      Quadrupole Moment (Debye*Ang):
      Origin of the operator (Ang)=   -0.0000    0.0000    0.0709
                  XX= -1.4008E+01              XY= -1.4695E-03              XZ=  1.0188E-03              YY= -1.6871E+01
                  YZ=  1.2811E-05              ZZ= -1.6417E+01
      In traceless form (Debye*Ang)
                  XX=  2.6359E+00              XY= -2.2042E-03              XZ=  1.5282E-03              YY= -1.6591E+00
                  YZ=  1.9216E-05              ZZ= -9.7683E-01
--
 
      Von Neumann Entropy (Root   3) =  1.27683
 

      Mulliken population analysis for root number:  3
      -----------------------------------------------
 
 
++    Molecular charges:
      ------------------
 
      Mulliken charges per centre
      ---------------------------
 
                S1      H2      H3    
      Total   15.8158  1.0921  1.0921
 
      N-E      0.1842 -0.0921 -0.0921
 
      Total electronic charge=   18.000000
 
      Total            charge=   -0.000000
--
 
 

      Expectation values of various properties for root number:  3
      -----------------------------------------------------------
 
 
++    Molecular properties:
      ---------------------
 
      Charge (e):
                      =   -0.0000
      Dipole Moment (Debye):
      Origin of the operator (Ang)=    0.0000    0.0000    0.0000
                   X=  5.0461E-04               Y= -5.5832E-06               Z= -1.1945E+00           Total=  1.1945E+00
      Quadrupole Moment (Debye*Ang):
      Origin of the operator (Ang)=   -0.0000    0.0000    0.0709
                  XX= -1.4459E+01              XY= -1.2709E-03              XZ=  1.8556E-03              YY= -1.6936E+01
                  YZ= -1.4904E-05              ZZ= -1.8846E+01
      In traceless form (Debye*Ang)
                  XX=  3.4315E+00              XY= -1.9064E-03              XZ=  2.7834E-03              YY= -2.8333E-01
                  YZ= -2.2356E-05              ZZ= -3.1481E+00
--
 
      Von Neumann Entropy (Root   4) =  1.68742
 

      Mulliken population analysis for root number:  4
      -----------------------------------------------
 
 
++    Molecular charges:
      ------------------
 
      Mulliken charges per centre
      ---------------------------
 
                S1      H2      H3    
      Total   16.0051  0.9974  0.9974
 
      N-E     -0.0051  0.0026  0.0026
 
      Total electronic charge=   18.000000
 
      Total            charge=   -0.000000
--
 
 

      Expectation values of various properties for root number:  4
      -----------------------------------------------------------
 
 
++    Molecular properties:
      ---------------------
 
      Charge (e):
                      =   -0.0000
      Dipole Moment (Debye):
      Origin of the operator (Ang)=    0.0000    0.0000    0.0000
                   X=  1.5996E-04               Y=  2.1092E-05               Z= -3.7520E-01           Total=  3.7520E-01
      Quadrupole Moment (Debye*Ang):
      Origin of the operator (Ang)=   -0.0000    0.0000    0.0709
                  XX= -1.7069E+01              XY=  7.2443E-04              XZ= -4.6796E-04              YY= -1.5655E+01
                  YZ=  5.8841E-05              ZZ= -1.5962E+01
      In traceless form (Debye*Ang)
                  XX= -1.2610E+00              XY=  1.0867E-03              XZ= -7.0195E-04              YY=  8.6085E-01
                  YZ=  8.8261E-05              ZZ=  4.0019E-01
--
 
      Von Neumann Entropy (Root   5) =  1.69562
 

      Mulliken population analysis for root number:  5
      -----------------------------------------------
 
 
++    Molecular charges:
      ------------------
 
      Mulliken charges per centre
      ---------------------------
 
                S1      H2      H3    
      Total   16.0417  0.9792  0.9791
 
      N-E     -0.0417  0.0208  0.0209
 
      Total electronic charge=   18.000000
 
      Total            charge=   -0.000000
--
 
 

      Expectation values of various properties for root number:  5
      -----------------------------------------------------------
 
 
++    Molecular properties:
      ---------------------
 
      Charge (e):
                      =   -0.0000
      Dipole Moment (Debye):
      Origin of the operator (Ang)=    0.0000    0.0000    0.0000
                   X=  4.6764E-06               Y= -2.1422E-05               Z= -8.1168E-03           Total=  8.1168E-03
      Quadrupole Moment (Debye*Ang):
      Origin of the operator (Ang)=   -0.0000    0.0000    0.0709
                  XX= -1.7107E+01              XY=  8.9938E-04              XZ= -4.9604E-04              YY= -1.5351E+01
                  YZ= -5.9018E-05              ZZ= -1.5933E+01
      In traceless form (Debye*Ang)
                  XX= -1.4648E+00              XY=  1.3491E-03              XZ= -7.4405E-04              YY=  1.1692E+00
                  YZ= -8.8527E-05              ZZ=  2.9555E-01
--
 
      Von Neumann Entropy (Root   6) =  1.64602
 

      Mulliken population analysis for root number:  6
      -----------------------------------------------
 
 
++    Molecular charges:
      ------------------
 
      Mulliken charges per centre
      ---------------------------
 
                S1      H2      H3    
      Total   16.0055  0.9973  0.9973
 
      N-E     -0.0055  0.0027  0.0027
 
      Total electronic charge=   18.000000
 
      Total            charge=   -0.000000
--
 
 

      Expectation values of various properties for root number:  6
      -----------------------------------------------------------
 
 
++    Molecular properties:
      ---------------------
 
      Charge (e):
                      =   -0.0000
      Dipole Moment (Debye):
      Origin of the operator (Ang)=    0.0000    0.0000    0.0000
                   X= -1.5307E-04               Y=  5.6819E-07               Z=  3.6480E-01           Total=  3.6480E-01
      Quadrupole Moment (Debye*Ang):
      Origin of the operator (Ang)=   -0.0000    0.0000    0.0709
                  XX= -1.7067E+01              XY=  9.3046E-04              XZ= -5.4834E-04              YY= -1.5251E+01
                  YZ=  2.9321E-06              ZZ= -1.5770E+01
      In traceless form (Debye*Ang)
                  XX= -1.5569E+00              XY=  1.3957E-03              XZ= -8.2251E-04              YY=  1.1678E+00
                  YZ=  4.3981E-06              ZZ=  3.8913E-01
--
 
 
      Input file to MOLDEN was generated!
 
 
      Input file to MOLDEN was generated!
 
 
      Input file to MOLDEN was generated!
 
 
      Input file to MOLDEN was generated!
 
 
      Input file to MOLDEN was generated!
 
 
      Input file to MOLDEN was generated!
 
 
      Input file to MOLDEN was generated!
 
      Average orbitals are written to the RASORB file
      Natural orbitals for root   1 are written to the RASORB.1 file
      Natural orbitals for root   2 are written to the RASORB.2 file
      Natural orbitals for root   3 are written to the RASORB.3 file
      Natural orbitals for root   4 are written to the RASORB.4 file
      Natural orbitals for root   5 are written to the RASORB.5 file
      Natural orbitals for root   6 are written to the RASORB.6 file
      Spin density orbitals for root   1 are written to the SPDORB.1 file
      Spin density orbitals for root   2 are written to the SPDORB.2 file
      Spin density orbitals for root   3 are written to the SPDORB.3 file
      Spin density orbitals for root   4 are written to the SPDORB.4 file
      Spin density orbitals for root   5 are written to the SPDORB.5 file
      Spin density orbitals for root   6 are written to the SPDORB.6 file
 
--- Stop Module: rasscf at Fri Mar 22 11:45:56 2024 /rc=_RC_ALL_IS_WELL_ ---
--- Module rasscf spent 2 seconds ---

>>> COPY MOLCAS.rasscf.molden MOLCAS.1.molden

>>> COPY MOLCAS.JobIph MOLCAS.1.JobIph

>>> COPY /public/manganese/scratch/tmp/sascha.925337/SAVE/MOLCAS.2.JobIph.0 JOBOLD

*** symbolic link created: INPORB -> MOLCAS.RasOrb
--- Start Module: rasscf at Fri Mar 22 11:45:56 2024 ---
 
()()()()()()()()()()()()()()()()()()()()()()()()()()()()()()()()()()()()()()()()()()()()()()()()()()

                                              &RASSCF

                                   only a single process is used
                       available to each process: 10 GB of memory, 1 thread?
                                            pid: 1867268
()()()()()()()()()()()()()()()()()()()()()()()()()()()()()()()()()()()()()()()()()()()()()()()()()()
 
 
      Header of the ONEINT file:
      --------------------------
      
      Integrals generated by Gateway/Seward, Fri Mar 22 11:45:53 2024
 
 
      OrdInt status: non-squared
 
 
      Cartesian coordinates in Angstrom:
      -----------------------------------------------------
      No.  Label        X            Y            Z        
      -----------------------------------------------------
       1   S1         0.00000000   0.00000000   0.00084100
       2   H2         0.00000000   0.97479900   1.18293400
       3   H3        -0.00100000  -0.97479900   1.18293400
      -----------------------------------------------------
      Nuclear repulsion energy =   11.32343573
 
++    Wave function specifications:
      -----------------------------
 
      Number of closed shell electrons          10
      Number of electrons in active shells       7
      Max number of holes in RAS1 space          0
      Max nr of electrons in RAS3 space          0
      Number of inactive orbitals                5
      Number of active orbitals                  6
      Number of secondary orbitals              17
      Spin quantum number                      0.5
      State symmetry                             1
--
 
++    Orbital specifications:
      -----------------------
 
      Symmetry species                           1
                                                 a
      Frozen orbitals                            0
      Inactive orbitals                          5
      Active orbitals                            6
      RAS1 orbitals                              0
      RAS2 orbitals                              6
      RAS3 orbitals                              0
      Secondary orbitals                        17
      Deleted orbitals                           0
      Number of basis functions                 28
--
 
++    CI expansion specifications:
      ----------------------------
 
      Number of CSFs                           210
      Number of determinants                   300
      Number of root(s) required                 4
      Root chosen for geometry opt.              4
      CI roots used                              1     2     3     4
      weights                                0.250 0.250 0.250 0.250
      highest root included in the CI            4
      max. size of the explicit Hamiltonian    200
--
 
++    Optimization specifications:
      ----------------------------
 
      RASSCF algorithm: LK RI/DF
      Maximum number of macro iterations       200
      Maximum number of SX iterations          100
      Threshold for RASSCF energy            0.100E-07
      Threshold for max MO rotation          0.100E-03
      Threshold for max BLB element          0.100E-03
      Level shift parameter                  0.500E+00
      Make Quasi-Newton update
--
 
      The MO-coefficients are taken from the file:
      JOBOLD
      Title:(No title given)                                                        
 
      Total molecular charge    1.00
 
      ************************************************************************************************************************
      *                                                                                                                      *
      *                                            Wave function control section                                             *
      *                                                                                                                      *
      ************************************************************************************************************************
 
 
                                         RASSCF iterations: Energy and convergence statistics
                                         ----------------------------------------------------
 
      Iter CI   SX   CI       RASSCF       Energy    max ROT     max BLB   max BLB  Level Ln srch  Step   QN   Walltime
          iter iter root      energy       change     param      element    value   shift minimum  type update hh:mm:ss
 Nr of preliminary CI iterations:   3
        1   1    3    0  -398.22922415    0.00E+00   0.92E-04    7  26 1  0.63E-04   0.00   0.00    SX    NO    0:00:00
        2   1    3    0  -398.22922417   -0.19E-07*  0.31E-04    7  17 1 -0.84E-05   0.00   0.00    SX    NO    0:00:00
        3   1    3    0  -398.22922417   -0.70E-09   0.11E-04    8  17 1  0.21E-05   0.00   0.00    SX    NO    0:00:00
        4   4    3    0  -398.22922457   -0.39E-06*  0.63E-04    6  27 1 -0.15E-04   0.00   0.00    SX    NO    0:00:00
        5   1    3    0  -398.22922457   -0.14E-08  -0.29E-04    8  14 1 -0.29E-05   0.00   1.20    QN   YES    0:00:00
      Convergence after  5 iterations
        6   1    3    0  -398.22922457   -0.54E-10  -0.29E-04    8  20 1  0.65E-06   0.00   1.20    QN   YES    0:00:00
 
      ************************************************************************************************************************
                                                      Wave function printout:
                       occupation of active orbitals, and spin coupling of open shells (u,d: Spin up or down)
      ************************************************************************************************************************
 
      Note: transformation to natural orbitals
      has been made, which may change the order of the CSFs.
 
      printout of CI-coefficients larger than  0.10 for root  1
      energy=    -398.367701
      conf/sym  111111     Coeff  Weight
             1  222u00  -0.97373 0.94814
            44  2uduud  -0.10404 0.01082
            56  202u20  -0.10752 0.01156
 
      printout of CI-coefficients larger than  0.10 for root  2
      energy=    -398.233635
      conf/sym  111111     Coeff  Weight
             4  22u200  -0.97389 0.94846
           124  20u220  -0.10828 0.01172
 
      printout of CI-coefficients larger than  0.10 for root  3
      energy=    -398.220619
      conf/sym  111111     Coeff  Weight
            13  2u2200  -0.96107 0.92365
            41  2ud20u   0.12304 0.01514
            55  2022u0   0.10655 0.01135
 
      printout of CI-coefficients larger than  0.10 for root  4
      energy=    -398.094943
      conf/sym  111111     Coeff  Weight
             2  2220u0   0.95501 0.91204
            11  22u0ud  -0.12520 0.01568
            16  2u2020  -0.12952 0.01678
 
      Natural orbitals and occupation numbers for root  1
      sym 1:   1.994887   1.949420   1.958169   1.000000   0.059656   0.037867
 
      Natural orbitals and occupation numbers for root  2
      sym 1:   1.979337   1.938115   1.006422   1.998398   0.047471   0.030258
 
      Natural orbitals and occupation numbers for root  3
      sym 1:   1.986200   1.013666   1.932827   1.981524   0.049382   0.036401
 
      Natural orbitals and occupation numbers for root  4
      sym 1:   1.977379   1.971992   1.951002   0.048802   0.992339   0.058487
 
      ************************************************************************************************************************
      *                                                                                                                      *
      *                                                    Final results                                                     *
      *                                                                                                                      *
      ************************************************************************************************************************
 
 
++    Wave function specifications:
      -----------------------------
 
      Number of closed shell electrons          10
      Number of electrons in active shells       7
      Max number of holes in RAS1 space          0
      Max nr of electrons in RAS3 space          0
      Number of inactive orbitals                5
      Number of active orbitals                  6
      Number of secondary orbitals              17
      Spin quantum number                      0.5
      State symmetry                             1
--
 
++    Orbital specifications:
      -----------------------
 
      Symmetry species                           1
                                                 a
      Frozen orbitals                            0
      Inactive orbitals                          5
      Active orbitals                            6
      RAS1 orbitals                              0
      RAS2 orbitals                              6
      RAS3 orbitals                              0
      Secondary orbitals                        17
      Deleted orbitals                           0
      Number of basis functions                 28
--
 
++    CI expansion specifications:
      ----------------------------
 
      Number of CSFs                           210
      Number of determinants                   300
      Number of root(s) required                 4
      CI roots used                              1     2     3     4
      weights                                0.250 0.250 0.250 0.250
      highest root included in the CI            4
      Root passed to geometry opt.               4
--
 
++    Final optimization conditions:
      ------------------------------
 
      Average CI energy                            -398.22922457
      RASSCF energy for state  4                   -398.09494349
      Super-CI energy                                -0.00000000
      RASSCF energy change                            0.00000000
      Max change in MO coefficients               0.134E-03
      Max non-diagonal density matrix element    -0.293E-04
      Maximum BLB matrix element                  0.651E-06
      (orbital pair   8,  20 in symmetry   1)
      Norm of electronic gradient            0.802E-01
--
 
 
      Final state energy(ies):
      ------------------------
 
::    RASSCF root number  1 Total energy:   -398.36770063
::    RASSCF root number  2 Total energy:   -398.23363524
::    RASSCF root number  3 Total energy:   -398.22061891
::    RASSCF root number  4 Total energy:   -398.09494349
      Von Neumann Entropy (Root   1) =  0.82906
 

      Mulliken population analysis for root number:  1
      -----------------------------------------------
 
 
++    Molecular charges:
      ------------------
 
      Mulliken charges per centre
      ---------------------------
 
                S1      H2      H3    
      Total   15.4687  0.7656  0.7656
 
      N-E      0.5313  0.2344  0.2344
 
      Total electronic charge=   17.000000
 
      Total            charge=    1.000000
--
 
 

      Expectation values of various properties for root number:  1
      -----------------------------------------------------------
 
 
++    Molecular properties:
      ---------------------
 
      Charge (e):
                      =    1.0000
      Dipole Moment (Debye):
      Origin of the operator (Ang)=    0.0000    0.0000    0.0000
                   X= -1.0648E-03               Y=  1.6856E-08               Z=  2.5258E+00           Total=  2.5258E+00
      Center of Charge (Ang)
                     X=   -0.00022169               Y=    0.00000000               Z=    0.52586599
      Quadrupole Moment (Debye*Ang):
      Origin of the operator (Ang)=   -0.0000    0.0000    0.0709
                  XX= -1.1671E+01              XY=  1.0723E-03              XZ= -1.2030E-03              YY= -9.5838E+00
                  YZ= -9.8363E-08              ZZ= -8.8309E+00
      In traceless form (Debye*Ang)
                  XX= -2.4639E+00              XY=  1.6084E-03              XZ= -1.8046E-03              YY=  6.6727E-01
                  YZ= -1.4754E-07              ZZ=  1.7967E+00
--
 

      Mulliken spin population analysis for root number:  1
      ---------------------------------------------------
 
 
++    Molecular charges:
      ------------------
 
      Mulliken spin population per centre
      ---------------------------
 
                S1      H2      H3    
      Total    1.1013 -0.0507 -0.0507
 
      Total electronic spin=    1.000000
--
 
 
      Von Neumann Entropy (Root   2) =  0.77806
 

      Mulliken population analysis for root number:  2
      -----------------------------------------------
 
 
++    Molecular charges:
      ------------------
 
      Mulliken charges per centre
      ---------------------------
 
                S1      H2      H3    
      Total   15.6234  0.6883  0.6883
 
      N-E      0.3766  0.3117  0.3117
 
      Total electronic charge=   17.000000
 
      Total            charge=    1.000000
--
 
 

      Expectation values of various properties for root number:  2
      -----------------------------------------------------------
 
 
++    Molecular properties:
      ---------------------
 
      Charge (e):
                      =    1.0000
      Dipole Moment (Debye):
      Origin of the operator (Ang)=    0.0000    0.0000    0.0000
                   X= -1.0639E-03               Y= -1.0918E-06               Z=  2.5093E+00           Total=  2.5093E+00
      Center of Charge (Ang)
                     X=   -0.00022150               Y=   -0.00000023               Z=    0.52242763
      Quadrupole Moment (Debye*Ang):
      Origin of the operator (Ang)=   -0.0000    0.0000    0.0709
                  XX= -1.4203E+01              XY=  2.6686E-03              XZ= -3.3789E-03              YY= -9.0083E+00
                  YZ= -3.2095E-06              ZZ= -6.2129E+00
      In traceless form (Debye*Ang)
                  XX= -6.5925E+00              XY=  4.0028E-03              XZ= -5.0684E-03              YY=  1.1997E+00
                  YZ= -4.8143E-06              ZZ=  5.3928E+00
--
 

      Mulliken spin population analysis for root number:  2
      ---------------------------------------------------
 
 
++    Molecular charges:
      ------------------
 
      Mulliken spin population per centre
      ---------------------------
 
                S1      H2      H3    
      Total    0.6670  0.1665  0.1665
 
      Total electronic spin=    1.000000
--
 
 
      Von Neumann Entropy (Root   3) =  0.80477
 

      Mulliken population analysis for root number:  3
      -----------------------------------------------
 
 
++    Molecular charges:
      ------------------
 
      Mulliken charges per centre
      ---------------------------
 
                S1      H2      H3    
      Total   15.6193  0.6903  0.6903
 
      N-E      0.3807  0.3097  0.3097
 
      Total electronic charge=   17.000000
 
      Total            charge=    1.000000
--
 
 

      Expectation values of various properties for root number:  3
      -----------------------------------------------------------
 
 
++    Molecular properties:
      ---------------------
 
      Charge (e):
                      =    1.0000
      Dipole Moment (Debye):
      Origin of the operator (Ang)=    0.0000    0.0000    0.0000
                   X= -1.4587E-03               Y=  1.1120E-06               Z=  3.4427E+00           Total=  3.4427E+00
      Center of Charge (Ang)
                     X=   -0.00030370               Y=    0.00000023               Z=    0.71675394
      Quadrupole Moment (Debye*Ang):
      Origin of the operator (Ang)=   -0.0000    0.0000    0.0709
                  XX= -1.4285E+01              XY=  3.5929E-03              XZ= -2.5831E-03              YY= -7.2759E+00
                  YZ=  4.6357E-06              ZZ= -8.1670E+00
      In traceless form (Debye*Ang)
                  XX= -6.5640E+00              XY=  5.3894E-03              XZ= -3.8747E-03              YY=  3.9503E+00
                  YZ=  6.9536E-06              ZZ=  2.6137E+00
--
 

      Mulliken spin population analysis for root number:  3
      ---------------------------------------------------
 
 
++    Molecular charges:
      ------------------
 
      Mulliken spin population per centre
      ---------------------------
 
                S1      H2      H3    
      Total    0.4069  0.2966  0.2966
 
      Total electronic spin=    1.000000
--
 
 
      Von Neumann Entropy (Root   4) =  0.85260
 

      Mulliken population analysis for root number:  4
      -----------------------------------------------
 
 
++    Molecular charges:
      ------------------
 
      Mulliken charges per centre
      ---------------------------
 
                S1      H2      H3    
      Total   15.1962  0.9019  0.9019
 
      N-E      0.8038  0.0981  0.0981
 
      Total electronic charge=   17.000000
 
      Total            charge=    1.000000
--
 
 

      Expectation values of various properties for root number:  4
      -----------------------------------------------------------
 
 
++    Molecular properties:
      ---------------------
 
      Charge (e):
                      =    1.0000
      Dipole Moment (Debye):
      Origin of the operator (Ang)=    0.0000    0.0000    0.0000
                   X= -6.0578E-04               Y=  2.0044E-06               Z=  1.4125E+00           Total=  1.4125E+00
      Center of Charge (Ang)
                     X=   -0.00012612               Y=    0.00000042               Z=    0.29407454
      Quadrupole Moment (Debye*Ang):
      Origin of the operator (Ang)=   -0.0000    0.0000    0.0709
                  XX= -9.1448E+00              XY= -1.6835E-03              XZ=  1.0616E-03              YY= -1.2371E+01
                  YZ=  3.8990E-06              ZZ= -1.1565E+01
      In traceless form (Debye*Ang)
                  XX=  2.8230E+00              XY= -2.5253E-03              XZ=  1.5924E-03              YY= -2.0163E+00
                  YZ=  5.8485E-06              ZZ= -8.0670E-01
--
 

      Mulliken spin population analysis for root number:  4
      ---------------------------------------------------
 
 
++    Molecular charges:
      ------------------
 
      Mulliken spin population per centre
      ---------------------------
 
                S1      H2      H3    
      Total    0.2338  0.3831  0.3831
 
      Total electronic spin=    1.000000
--
 
 
 
      Input file to MOLDEN was generated!
 
 
      Input file to MOLDEN was generated!
 
 
      Input file to MOLDEN was generated!
 
 
      Input file to MOLDEN was generated!
 
 
      Input file to MOLDEN was generated!
 
      Average orbitals are written to the RASORB file
      Natural orbitals for root   1 are written to the RASORB.1 file
      Natural orbitals for root   2 are written to the RASORB.2 file
      Natural orbitals for root   3 are written to the RASORB.3 file
      Natural orbitals for root   4 are written to the RASORB.4 file
      Spin density orbitals for root   1 are written to the SPDORB.1 file
      Spin density orbitals for root   2 are written to the SPDORB.2 file
      Spin density orbitals for root   3 are written to the SPDORB.3 file
      Spin density orbitals for root   4 are written to the SPDORB.4 file
 
--- Stop Module: rasscf at Fri Mar 22 11:45:58 2024 /rc=_RC_ALL_IS_WELL_ ---
--- Module rasscf spent 2 seconds ---

>>> COPY MOLCAS.rasscf.molden MOLCAS.2.molden

>>> COPY MOLCAS.JobIph MOLCAS.2.JobIph

>>> COPY /public/manganese/scratch/tmp/sascha.925337/SAVE/MOLCAS.1.JobIph.0 JOB001

>>> COPY MOLCAS.1.JobIph JOB002

*** symbolic link created: INPORB -> MOLCAS.RasOrb
--- Start Module: rassi at Fri Mar 22 11:45:58 2024 ---
 
()()()()()()()()()()()()()()()()()()()()()()()()()()()()()()()()()()()()()()()()()()()()()()()()()()

                                               &RASSI

                                   only a single process is used
                       available to each process: 10 GB of memory, 1 thread?
                                            pid: 1867286
()()()()()()()()()()()()()()()()()()()()()()()()()()()()()()()()()()()()()()()()()()()()()()()()()()
 
 
      ********************************************************************************
      *                                                                              *
      *                             General data section                             *
      *                                                                              *
      ********************************************************************************
 
   Specific data for JOBIPH file 
 JOB001                                                                         
                                                  
   -------------------------------------
 
   Header from SEWARD:
                                                                               
        Integrals generated by Gateway/Seward, Fri Mar 22 11:45:21 2024        
 
   CASSCF title (first line only):
       (No title given)                                                        
 
   STATE IRREP:                             1
   SPIN MULTIPLICITY:                       1
   ACTIVE ELECTRONS:                        8
   MAX RAS1 HOLES:                          0
   MAX RAS3 ELECTRONS:                      0
   NR OF CONFIG:                          105
 
   Specific data for JOBIPH file 
 JOB002                                                                         
                                                  
   -------------------------------------
 
   Header from SEWARD:
                                                                               
        Integrals generated by Gateway/Seward, Fri Mar 22 11:45:53 2024        
 
   CASSCF title (first line only):
       (No title given)                                                        
 
   STATE IRREP:                             1
   SPIN MULTIPLICITY:                       1
   ACTIVE ELECTRONS:                        8
   MAX RAS1 HOLES:                          0
   MAX RAS3 ELECTRONS:                      0
   NR OF CONFIG:                          105
 
   The following data are common to all the states:
   ------------------------------------------------
   (note: frozen counts as inactive, deleted as secondary)
 
      Nr of irreps: 1
 
                 Total     No./Irrep 
      Irrep                  1
                             a
 
      INACTIVE       5       5
      ACTIVE         6       6
      SECONDARY     17      17
      BASIS         28      28
 
      RAS1           0       0
      RAS2           6       6
      RAS3           0       0
 
        MATRIX ELEMENTS WILL BE COMPUTED FOR THE FOLLOWING ONE-ELECTRON OPERATOR
 S, UNLESS ZERO BY SYMMETRY.
   (Herm=Hermitian, Anti=Antihermitian, Sing=Singlet operator, Trip=Triplet oper
 ator)
     MLTPL  0   1 (HERMSING)     MLTPL  1   1 (HERMSING)     MLTPL  1   2 (HERMSING)
     MLTPL  1   3 (HERMSING)     MLTPL  2   1 (HERMSING)     MLTPL  2   2 (HERMSING)
     MLTPL  2   3 (HERMSING)     MLTPL  2   4 (HERMSING)     MLTPL  2   5 (HERMSING)
     MLTPL  2   6 (HERMSING)     VELOCITY   1 (ANTISING)     VELOCITY   2 (ANTISING)
     VELOCITY   3 (ANTISING)     ANGMOM     1 (ANTISING)     ANGMOM     2 (ANTISING)
     ANGMOM     3 (ANTISING)     MLTPV  2   1 (ANTISING)     MLTPV  2   2 (ANTISING)
     MLTPV  2   3 (ANTISING)     MLTPV  2   4 (ANTISING)     MLTPV  2   5 (ANTISING)
     MLTPV  2   6 (ANTISING)
 
       EIGENSTATES OF A SPIN-FREE HAMILTONIAN WILL BE COMPUTED BASED ON:
 
  A Hamiltonian matrix computed by RASSI.
 
  Nr of states:                    12
 
   State:        1   2   3   4   5   6   7   8   9  10  11  12
  JobIph:        1   1   1   1   1   1   2   2   2   2   2   2
 Root nr:        1   2   3   4   5   6   1   2   3   4   5   6
 

 MO OVERLAP MATRIX IN ORIGINAL ORBITAL BASES:

 
 SYMMETRY LABELS OF ROWS/COLS: 1 1


               1               2               3               4               5

   1   1.00000000      0.534960359E-10  0.386121768E-10  0.172448052E-10 -0.100434892E-07
   2 -0.623021905E-10   1.00000000     -0.543665014E-09  0.187057821E-08 -0.116281198E-05
   3 -0.452617261E-10  0.551530202E-10  0.999999911      0.142081706E-05 -0.422606879E-03
   4 -0.109958503E-10 -0.128526804E-08 -0.120412972E-05  0.999999869      0.512704837E-03
   5  0.850983844E-08  0.114836577E-05  0.422594166E-03 -0.512696416E-03  0.999999779    
   6  0.188289724E-08  0.126889120E-08  0.305336415E-06 -0.156113675E-08  0.739371027E-06
   7 -0.573908369E-11 -0.495954361E-09 -0.108567339E-08  0.184952093E-08 -0.363456800E-06
   8  0.886715341E-10 -0.148713776E-08 -0.138262257E-07 -0.724240588E-09  0.322139570E-06
   9 -0.176938667E-07 -0.353085930E-06  0.236220893E-06 -0.182084162E-06 -0.376798461E-08
  10  0.764388092E-11 -0.194096472E-11  0.170628963E-09  0.151111097E-08 -0.645572721E-08
  11  0.484683939E-10 -0.173230701E-08 -0.112049712E-07  0.826274812E-11 -0.121391386E-06


               6               7               8               9              10

   1 -0.245058198E-08  0.165988018E-08 -0.137220722E-08  0.807004656E-08 -0.464393874E-08
   2 -0.666062334E-08  0.147296260E-07 -0.966392713E-08  0.364203718E-06 -0.366200669E-07
   3 -0.307972083E-06  0.631982453E-08  0.940639836E-08 -0.169501282E-06 -0.593384931E-08
   4  0.311614602E-08 -0.492389371E-08  0.322310359E-08  0.758822752E-07  0.546117049E-10
   5 -0.343529038E-05  0.767826009E-05 -0.605190386E-05  0.364623741E-08 -0.185551141E-04
   6  0.999999978      0.117602028E-06 -0.138801911E-06 -0.725441142E-04 -0.104462996E-06
   7 -0.366422888E-07  0.999999910      0.400868419E-05  0.459664553E-03 -0.167949097E-06
   8  0.707994012E-07 -0.385066187E-05  0.999999929     -0.388916423E-03  0.757366192E-07
   9  0.296454092E-04 -0.341348643E-03  0.295754647E-03  0.999999778     -0.503588578E-03
  10  0.163295661E-07 -0.252072520E-07  0.708436988E-07  0.211746272E-03   1.00000003    
  11  0.600696160E-08 -0.239104619E-07 -0.256362902E-07  0.123572049E-03  0.157529015E-04


              11
   1 -0.483709057E-08
   2 -0.354183846E-07
   3  0.704038630E-08
   4  0.283389853E-09
   5 -0.186641121E-04
   6 -0.867745723E-07
   7 -0.157895360E-06
   8  0.163144964E-06
   9 -0.415098503E-03
  10 -0.156479558E-04
  11   1.00000006    
 
 *******************************************************************************
 *
 
  HAMILTONIAN MATRIX FOR THE ORIGINAL STATES:
 
                   |    1 >          |    2 >          |    3 >          |    4 >          |    5 > 
 <    1 |      -398.69153811       -0.00019413        0.00017231        0.00000002        0.00000004
 <    2 |        -0.00019413     -398.50819951        0.00000012        0.00008208        0.00006191
 <    3 |         0.00017231        0.00000012     -398.47857515        0.00006398        0.00007541
 <    4 |         0.00000002        0.00008208        0.00006398     -398.35192377        0.00000010
 <    5 |         0.00000004        0.00006191        0.00007541        0.00000010     -398.34587780
 <    6 |        -0.00000010        0.00008937       -0.00010729        0.00000004       -0.00000000
 <    7 |      -398.69142371       -0.29016529        0.23709203        0.00003258        0.00003428
 <    8 |         0.14168754     -398.50807596        0.00066172        0.12631983        0.09870022
 <    9 |        -0.09039458       -0.00063586     -398.47849011        0.12328582        0.12748529
 <   10 |        -0.00000847       -0.08132973       -0.09249902     -398.35183404        0.00203045
 <   11 |        -0.00001400       -0.07231173       -0.08921917       -0.00184220     -398.34580197
 <   12 |         0.00003205       -0.05380315        0.05180407       -0.00005185       -0.00001730
                   |    6 >          |    7 >          |    8 >          |    9 >          |   10 > 
 <    1 |        -0.00000010     -398.69142371        0.14168754       -0.09039458       -0.00000847
 <    2 |         0.00008937       -0.29016529     -398.50807596       -0.00063586       -0.08132973
 <    3 |        -0.00010729        0.23709203        0.00066172     -398.47849011       -0.09249902
 <    4 |         0.00000004        0.00003258        0.12631983        0.12328582     -398.35183404
 <    5 |        -0.00000000        0.00003428        0.09870022        0.12748529        0.00203045
 <    6 |      -398.28241937        0.00001976        0.09990962       -0.10949475        0.00007637
 <    7 |         0.00001976     -398.69153828        0.00000000       -0.00000000        0.00000000
 <    8 |         0.09990962        0.00000000     -398.50819966        0.00000000        0.00000000
 <    9 |        -0.10949475       -0.00000000        0.00000000     -398.47857530        0.00000000
 <   10 |         0.00007637        0.00000000        0.00000000        0.00000000     -398.35192379
 <   11 |        -0.00000438        0.00000000        0.00000000        0.00000000        0.00000000
 <   12 |      -398.28233836        0.00000000        0.00000000       -0.00000000       -0.00000000
                   |   11 >          |   12 > 
 <    1 |        -0.00001400        0.00003205
 <    2 |        -0.07231173       -0.05380315
 <    3 |        -0.08921917        0.05180407
 <    4 |        -0.00184220       -0.00005185
 <    5 |      -398.34580197       -0.00001730
 <    6 |        -0.00000438     -398.28233836
 <    7 |         0.00000000        0.00000000
 <    8 |         0.00000000        0.00000000
 <    9 |         0.00000000       -0.00000000
 <   10 |         0.00000000       -0.00000000
 <   11 |      -398.34587781       -0.00000000
 <   12 |        -0.00000000     -398.28241942
 
      OVERLAP MATRIX FOR THE ORIGINAL STATES:
 
      1.00000000
      0.00000000      1.00000000
     -0.00000000     -0.00000000      1.00000000
      0.00000000      0.00000000      0.00000000      1.00000000
     -0.00000000     -0.00000000      0.00000000     -0.00000000      1.00000000
     -0.00000000     -0.00000000     -0.00000000     -0.00000000      0.00000000
      1.00000000
      0.99999971      0.00072779     -0.00059467     -0.00000008     -0.00000009
     -0.00000005      1.00000000
     -0.00035555      0.99999969     -0.00000166     -0.00031698     -0.00024768
     -0.00025071     -0.00000000      1.00000000
      0.00022685      0.00000160      0.99999979     -0.00030939     -0.00031993
      0.00027477     -0.00000000     -0.00000000      1.00000000
      0.00000002      0.00020416      0.00023220      0.99999977     -0.00000510
     -0.00000019      0.00000000      0.00000000     -0.00000000      1.00000000
      0.00000004      0.00018152      0.00022397      0.00000462      0.99999981
      0.00000001     -0.00000000      0.00000000     -0.00000000     -0.00000000
      1.00000000
     -0.00000008      0.00013508     -0.00013006      0.00000013      0.00000004
      0.99999980     -0.00000000     -0.00000000      0.00000000     -0.00000000
      0.00000000      1.00000000
 
++ Matrix elements for input states
   --------------------------------
 
  MATRIX ELEMENTS OF 1-ELECTRON OPERATORS
  FOR THE RASSCF INPUT WAVE FUNCTIONS:
 
 
 PROPERTY: MLTPL  0   COMPONENT:*   1
 ORIGIN    :   0.00000000D+00   0.00000000D+00   0.00000000D+00
 STATE     :       1                2                3                4
 
     1        0.291473178E-06 -0.372241055E-03  0.367817188E-03  0.131827283E-07
     2       -0.372241055E-03 -0.257631498E-07  0.320972836E-06  0.112819209E-03
     3        0.367817188E-03  0.320972836E-06 -0.233965345E-07  0.771891806E-04
     4        0.131827283E-07  0.112819209E-03  0.771891806E-04 -0.697760179E-07
     5        0.488971255E-07  0.661550858E-04  0.959594935E-04  0.251138626E-06
     6       -0.949375143E-07  0.115634268E-03 -0.144709202E-03  0.591980928E-07
     7         0.00000000       0.00000000      0.173472348E-17  0.145228881E-15
     8        0.867361738E-18 -0.355271368E-14  0.588552373E-16  0.867361738E-18
     9         0.00000000     -0.139499550E-15   0.00000000      0.867361738E-18
    10        0.124141149E-16 -0.433680869E-18  0.867361738E-18 -0.710542736E-14
    11        0.415514130E-16   0.00000000     -0.867361738E-18 -0.134441069E-16
    12       -0.138015760E-15   0.00000000      0.867361738E-18  0.481157066E-16
 
 
 PROPERTY: MLTPL  0   COMPONENT:*   1
 ORIGIN    :   0.00000000D+00   0.00000000D+00   0.00000000D+00
 STATE     :       5                6                7                8
 
     1        0.488971255E-07 -0.949375143E-07   0.00000000      0.867361738E-18
     2        0.661550858E-04  0.115634268E-03   0.00000000     -0.355271368E-14
     3        0.959594935E-04 -0.144709202E-03  0.173472348E-17  0.588552373E-16
     4        0.251138626E-06  0.591980928E-07  0.145228881E-15  0.867361738E-18
     5       -0.894110315E-07 -0.758710156E-08  0.239481202E-15  0.867361738E-18
     6       -0.758710156E-08 -0.336137127E-07 -0.207572835E-16 -0.867361738E-18
     7        0.239481202E-15 -0.207572835E-16 -0.103028697E-12 -0.232564822E-16
     8        0.867361738E-18 -0.867361738E-18 -0.232564822E-16 -0.994759830E-13
     9         0.00000000      0.867361738E-18  0.604773588E-15 -0.161515432E-15
    10       -0.555247038E-16  0.891781698E-16  0.215468919E-14  0.165031706E-15
    11       -0.355271368E-14  0.284521755E-15 -0.543690184E-15  0.681339103E-15
    12       -0.292246696E-15 -0.355271368E-14 -0.277998541E-15  0.765857381E-15
 
 
 PROPERTY: MLTPL  0   COMPONENT:*   1
 ORIGIN    :   0.00000000D+00   0.00000000D+00   0.00000000D+00
 STATE     :       9               10               11               12
 
     1         0.00000000      0.124141149E-16  0.415514130E-16 -0.138015760E-15
     2       -0.139499550E-15 -0.433680869E-18   0.00000000       0.00000000    
     3         0.00000000      0.867361738E-18 -0.867361738E-18  0.867361738E-18
     4        0.867361738E-18 -0.710542736E-14 -0.134441069E-16  0.481157066E-16
     5         0.00000000     -0.555247038E-16 -0.355271368E-14 -0.292246696E-15
     6        0.867361738E-18  0.891781698E-16  0.284521755E-15 -0.355271368E-14
     7        0.604773588E-15  0.215468919E-14 -0.543690184E-15 -0.277998541E-15
     8       -0.161515432E-15  0.165031706E-15  0.681339103E-15  0.765857381E-15
     9       -0.994759830E-13  0.718420989E-15  0.186737585E-15 -0.191914546E-15
    10        0.718420989E-15 -0.110134124E-12  0.375714523E-15 -0.215609374E-15
    11        0.186737585E-15  0.375714523E-15 -0.110134124E-12 -0.128103908E-14
    12       -0.191914546E-15 -0.215609374E-15 -0.128103908E-14 -0.106581410E-12
 
 
 PROPERTY: MLTPL  1   COMPONENT:*   1
 ORIGIN    :   0.00000000D+00   0.00000000D+00   0.00000000D+00
 STATE     :       1                2                3                4
 
     1       -0.301048246E-04  0.154088467E-06  0.279384951E-01  0.140545922E-04
     2        0.154088467E-06  0.159449212E-03 -0.364309675E-03 -0.708679397E-07
     3        0.279384951E-01 -0.364309675E-03  0.354960789E-03  0.261107540    
     4        0.140545922E-04 -0.708679397E-07  0.261107540      0.121816144E-03
     5       -0.677334217E-04  0.180308076     -0.554765240E-07 -0.580899479E-03
     6        0.817360551E-03  0.231414701      0.808434534E-07  0.138382327E-04
     7       -0.127416160E-03  0.986825669E-07  0.279383061E-01 -0.131971872E-03
     8       -0.840393083E-07  0.784180863E-04 -0.326816102E-03 -0.368432889E-06
     9        0.279388878E-01 -0.367513357E-03  0.277775670E-03  0.261107691    
    10       -0.793161611E-04 -0.120788757E-05  0.261107544      0.455019284E-04
    11        0.784070152E-05  0.180308003      0.109137961E-05 -0.518241042E-03
    12        0.930509362E-03  0.231415445     -0.766873134E-06 -0.505183428E-04
 
 
 PROPERTY: MLTPL  1   COMPONENT:*   1
 ORIGIN    :   0.00000000D+00   0.00000000D+00   0.00000000D+00
 STATE     :       5                6                7                8
 
     1       -0.677334217E-04  0.817360551E-03 -0.127416160E-03 -0.840393083E-07
     2        0.180308076      0.231414701      0.986825669E-07  0.784180863E-04
     3       -0.554765240E-07  0.808434534E-07  0.279383061E-01 -0.326816102E-03
     4       -0.580899479E-03  0.138382327E-04 -0.131971872E-03 -0.368432889E-06
     5        0.792553057E-04 -0.904695786E-04  0.619995095E-04  0.180308285    
     6       -0.904695786E-04  0.998492547E-04  0.922106763E-03  0.231414461    
     7        0.619995095E-04  0.922106763E-03 -0.152620972E-03  0.585715199E-09
     8        0.180308285      0.231414461      0.585715199E-09  0.296889738E-05
     9        0.339543376E-06  0.631513091E-06  0.279385144E-01 -0.324104325E-03
    10       -0.541420716E-03  0.505672697E-04 -0.128180473E-03 -0.145528658E-05
    11        0.129657822E-04 -0.766482919E-04  0.850188434E-04  0.180308150    
    12       -0.788346630E-04 -0.507861762E-04  0.961389135E-03  0.231414790    
 
 
 PROPERTY: MLTPL  1   COMPONENT:*   1
 ORIGIN    :   0.00000000D+00   0.00000000D+00   0.00000000D+00
 STATE     :       9               10               11               12
 
     1        0.279388878E-01 -0.793161611E-04  0.784070152E-05  0.930509362E-03
     2       -0.367513357E-03 -0.120788757E-05  0.180308003      0.231415445    
     3        0.277775670E-03  0.261107544      0.109137961E-05 -0.766873134E-06
     4        0.261107691      0.455019284E-04 -0.518241042E-03 -0.505183428E-04
     5        0.339543376E-06 -0.541420716E-03  0.129657822E-04 -0.788346630E-04
     6        0.631513091E-06  0.505672697E-04 -0.766482919E-04 -0.507861762E-04
     7        0.279385144E-01 -0.128180473E-03  0.850188434E-04  0.961389135E-03
     8       -0.324104325E-03 -0.145528658E-05  0.180308150      0.231414790    
     9        0.198529480E-03  0.261107617      0.150630282E-05  0.229154238E-06
    10        0.261107617      0.629333525E-04 -0.437956763E-03 -0.499399907E-05
    11        0.150630282E-05 -0.437956763E-03  0.183984614E-05 -0.199186139E-04
    12        0.229154238E-06 -0.499399907E-05 -0.199186139E-04 -0.602242934E-04
 
 
 PROPERTY: MLTPL  1   COMPONENT:*   2
 ORIGIN    :   0.00000000D+00   0.00000000D+00   0.00000000D+00
 STATE     :       1                2                3                4
 
     1       -0.449841077E-06  0.324118191E-03 -0.304424630E-03 -0.147865511E-06
     2        0.324118191E-03  0.205663367E-07 -0.632183712     -0.110866437E-03
     3       -0.304424630E-03 -0.632183712     -0.870954309E-08 -0.784546699E-04
     4       -0.147865511E-06 -0.110866437E-03 -0.784546699E-04  0.104513781E-06
     5        0.165879302     -0.686871081E-04 -0.980097762E-04 -0.854423523    
     6         1.87380614     -0.109826877E-03  0.140615899E-03 -0.969628875E-02
     7       -0.153510666E-07  0.240158688E-03 -0.203138660E-03 -0.406247626E-07
     8       -0.125965842E-03  0.997201402E-06 -0.632183027      0.201370844E-03
     9        0.127007739E-03 -0.632182980     -0.110658272E-05  0.235891657E-03
    10       -0.108328335E-05 -0.158339143E-03 -0.316716198E-03  0.434719197E-05
    11        0.165879049     -0.146529930E-03 -0.271254871E-03 -0.854422919    
    12         1.87380554      0.132088986E-02 -0.110528470E-02 -0.969637123E-02
 
 
 PROPERTY: MLTPL  1   COMPONENT:*   2
 ORIGIN    :   0.00000000D+00   0.00000000D+00   0.00000000D+00
 STATE     :       5                6                7                8
 
     1        0.165879302       1.87380614     -0.153510666E-07 -0.125965842E-03
     2       -0.686871081E-04 -0.109826877E-03  0.240158688E-03  0.997201402E-06
     3       -0.980097762E-04  0.140615899E-03 -0.203138660E-03 -0.632183027    
     4       -0.854423523     -0.969628875E-02 -0.406247626E-07  0.201370844E-03
     5        0.539409525E-07 -0.660965468E-07  0.165879395      0.201251754E-03
     6       -0.660965468E-07  0.450112386E-07   1.87380534     -0.789597216E-03
     7        0.165879395       1.87380534      0.129290962E-06  0.181975255E-06
     8        0.201251754E-03 -0.789597216E-03  0.181975255E-06  0.208206250E-05
     9        0.222084060E-03  0.472538131E-03 -0.148426233E-04 -0.632183095    
    10       -0.854422932     -0.969615519E-02 -0.104237488E-05 -0.151884659E-07
    11       -0.408453899E-05  0.111093714E-06  0.165879269     -0.924498638E-04
    12       -0.348146109E-06 -0.193325268E-06   1.87380581     -0.118840133E-03
 
 
 PROPERTY: MLTPL  1   COMPONENT:*   2
 ORIGIN    :   0.00000000D+00   0.00000000D+00   0.00000000D+00
 STATE     :       9               10               11               12
 
     1        0.127007739E-03 -0.108328335E-05  0.165879049       1.87380554    
     2       -0.632182980     -0.158339143E-03 -0.146529930E-03  0.132088986E-02
     3       -0.110658272E-05 -0.316716198E-03 -0.271254871E-03 -0.110528470E-02
     4        0.235891657E-03  0.434719197E-05 -0.854422919     -0.969637123E-02
     5        0.222084060E-03 -0.854422932     -0.408453899E-05 -0.348146109E-06
     6        0.472538131E-03 -0.969615519E-02  0.111093714E-06 -0.193325268E-06
     7       -0.148426233E-04 -0.104237488E-05  0.165879269       1.87380581    
     8       -0.632183095     -0.151884659E-07 -0.924498638E-04 -0.118840133E-03
     9       -0.219658528E-05 -0.134015781E-03 -0.499992117E-07  0.913984769E-07
    10       -0.134015781E-03  0.829804674E-05 -0.854423072     -0.969612720E-02
    11       -0.499992117E-07 -0.854423072     -0.842820875E-05 -0.180679742E-06
    12        0.913984769E-07 -0.969612720E-02 -0.180679742E-06  0.223545074E-06
 
 
 PROPERTY: MLTPL  1   COMPONENT:*   3
 ORIGIN    :   0.00000000D+00   0.00000000D+00   0.00000000D+00
 STATE     :       1                2                3                4
 
     1        0.361649834     -0.403854121E-03  0.378557923E-03  0.302836311    
     2       -0.403854121E-03 -0.764365930E-02  0.525871857E-06  0.135999704E-03
     3        0.378557923E-03  0.525871857E-06 -0.469933639      0.980312498E-04
     4        0.302836311      0.135999704E-03  0.980312498E-04 -0.147614931    
     5        0.213210725E-06  0.858027992E-04  0.119671165E-03  0.404057207E-06
     6       -0.140702339E-06  0.137006505E-03 -0.172731871E-03  0.121499465E-06
     7        0.361649451      0.122324014E-03 -0.385119544E-04  0.302836362    
     8       -0.742741618E-04 -0.764358586E-02  0.680078733E-06 -0.902663573E-04
     9       -0.189723164E-04 -0.455356590E-07 -0.469933387      0.176538342E-03
    10        0.302836015      0.218511458E-03 -0.143503718E-03 -0.147614442    
    11        0.148240094E-05  0.655114448E-04 -0.906814773E-05 -0.807237319E-06
    12       -0.145640743E-05  0.110615304E-03  0.128548841E-04  0.448751567E-07
 
 
 PROPERTY: MLTPL  1   COMPONENT:*   3
 ORIGIN    :   0.00000000D+00   0.00000000D+00   0.00000000D+00
 STATE     :       5                6                7                8
 
     1        0.213210725E-06 -0.140702339E-06  0.361649451     -0.742741618E-04
     2        0.858027992E-04  0.137006505E-03  0.122324014E-03 -0.764358586E-02
     3        0.119671165E-03 -0.172731871E-03 -0.385119544E-04  0.680078733E-06
     4        0.404057207E-06  0.121499465E-06  0.302836362     -0.902663573E-04
     5       -0.319409556E-02  0.470095894E-01 -0.727338215E-08  0.119488323E-04
     6        0.470095894E-01  0.143523867     -0.110381501E-06 -0.287327183E-04
     7       -0.727338215E-08 -0.110381501E-06  0.361649638     -0.366875167E-06
     8        0.119488323E-04 -0.287327183E-04 -0.366875167E-06 -0.764357861E-02
     9        0.650375101E-04 -0.368874391E-04  0.120808875E-04  0.611826546E-06
    10       -0.113055342E-06 -0.228530622E-06  0.302836147     -0.740178792E-07
    11       -0.319361928E-02  0.470096279E-01  0.148863005E-05  0.762690649E-04
    12        0.470096438E-01  0.143524228     -0.141117739E-05  0.979648495E-04
 
 
 PROPERTY: MLTPL  1   COMPONENT:*   3
 ORIGIN    :   0.00000000D+00   0.00000000D+00   0.00000000D+00
 STATE     :       9               10               11               12
 
     1       -0.189723164E-04  0.302836015      0.148240094E-05 -0.145640743E-05
     2       -0.455356590E-07  0.218511458E-03  0.655114448E-04  0.110615304E-03
     3       -0.469933387     -0.143503718E-03 -0.906814773E-05  0.128548841E-04
     4        0.176538342E-03 -0.147614442     -0.807237319E-06  0.448751567E-07
     5        0.650375101E-04 -0.113055342E-06 -0.319361928E-02  0.470096438E-01
     6       -0.368874391E-04 -0.228530622E-06  0.470096279E-01  0.143524228    
     7        0.120808875E-04  0.302836147      0.148863005E-05 -0.141117739E-05
     8        0.611826546E-06 -0.740178792E-07  0.762690649E-04  0.979648495E-04
     9       -0.469933451      0.110495260E-03  0.405616860E-08  0.327889369E-07
    10        0.110495260E-03 -0.147614194     -0.862742744E-06 -0.170931155E-06
    11        0.405616860E-08 -0.862742744E-06 -0.319338104E-02  0.470097234E-01
    12        0.327889369E-07 -0.170931155E-06  0.470097234E-01  0.143524446    
 
 
 PROPERTY: MLTPL  2   COMPONENT:*   1
 ORIGIN    :  -0.56035333D-04   0.00000000D+00   0.13406721D+00
 STATE     :       1                2                3                4
 
     1        -12.4208955     -0.148341318E-02  0.155066779E-02  0.146014243    
     2       -0.148341318E-02  -10.4146060      0.194359354E-05  0.390568924E-03
     3        0.155066779E-02  0.194359354E-05  -10.7499860      0.279408923E-03
     4        0.146014243      0.390568924E-03  0.279408923E-03  -12.6905225    
     5        0.214567603E-06  0.227284795E-03  0.314861278E-03  0.216527589E-05
     6       -0.181034760E-05  0.440159205E-03 -0.508391520E-03  0.177857175E-06
     7        -12.4208928     -0.863527049E-02  0.735437754E-02  0.146015239    
     8        0.425490777E-02  -10.4146025      0.188563157E-04  0.378967308E-02
     9       -0.263594015E-02 -0.154103398E-04  -10.7499834      0.394782563E-02
    10        0.146013873     -0.186476829E-02 -0.239301407E-02  -12.6905198    
    11        0.481632569E-06 -0.171815223E-02 -0.221980236E-02 -0.572407727E-04
    12       -0.642959743E-06 -0.108796689E-02  0.108672481E-02 -0.143736382E-05
 
 
 PROPERTY: MLTPL  2   COMPONENT:*   1
 ORIGIN    :  -0.56035333D-04   0.00000000D+00   0.13406721D+00
 STATE     :       5                6                7                8
 
     1        0.214567603E-06 -0.181034760E-05  -12.4208928      0.425490777E-02
     2        0.227284795E-03  0.440159205E-03 -0.863527049E-02  -10.4146025    
     3        0.314861278E-03 -0.508391520E-03  0.735437754E-02  0.188563157E-04
     4        0.216527589E-05  0.177857175E-06  0.146015239      0.378967308E-02
[...]
         1    6       9.57651550E-01  1.35570920E+03  5.15011925E+09  2.92099857E-03  5.15012061E+09
         2    3       7.89302615E-03  5.84973334E-02  2.22562593E+05  2.08460232E-07  2.22562651E+05
         2    5       3.51816841E-03  2.97838802E+06  7.83002438E-01  5.32902069E-01  2.97838933E+06
         2    6       8.06078024E-03  1.32026048E+07  3.48179869E+00  2.36601750E+00  1.32026106E+07
         3    4       5.75649855E-03  2.96681087E+06  7.81560616E-01  5.31297876E-01  2.96681219E+06
         7    8       8.76984038E-03  5.06449011E+06  1.27831726E+00  8.39086110E-01  5.06449222E+06
         4    5       2.94253289E-03  9.07991349E-04  3.45593185E+03  3.52356159E-09  3.45593276E+03
         5    6       9.34917423E-05  2.17172574E-03  1.78692233E-07  1.20965673E+04  1.20965694E+04
     -----------------------------------------------------------------------------------------------
--
 
++ Velocity transition strengths (spin-free states):
   -------------------------------------------------
     for osc. strength at least  1.00000000E-05
 
      From   To        Osc. strength     Einstein coefficients Ax, Ay, Az (sec-1)    Total A (sec-1)
     -----------------------------------------------------------------------------------------------
         1    3       4.06954015E-03  5.93013053E+06  1.57876637E+00  1.07366877E+00  5.93013318E+06
         1    4       2.47239227E-02  1.64100064E+01  4.16947967E-04  9.16221783E+07  9.16221947E+07
         1    5       2.47087406E-03  2.48861157E+00  9.48551276E+06  2.26202849E-03  9.48551525E+06
         1    6       7.65597202E-01  1.08357774E+03  4.11727719E+09  2.42334748E-03  4.11727828E+09
         2    3       6.66239150E-04  5.00608825E-03  1.87861929E+04  7.40501236E-08  1.87861979E+04
         2    5       2.02733995E-03  1.71629220E+06  4.53644272E-01  3.08570831E-01  1.71629296E+06
         2    6       6.03525118E-03  9.88502773E+06  2.60600049E+00  1.77452229E+00  9.88503211E+06
         3    4       1.32479091E-02  6.82776873E+06  1.79700357E+00  1.22607746E+00  6.82777175E+06
         7    8       1.41542239E-02  8.17391468E+06  2.08750535E+00  1.29588839E+00  8.17391807E+06
         4    5       6.58105463E-03  2.03740056E-03  7.72928533E+03  1.02958520E-09  7.72928737E+03
         4    6       7.99859690E-03  3.26040568E-01  1.24150582E+06  5.12409982E-07  1.24150615E+06
     -----------------------------------------------------------------------------------------------
--
 
++ Length and velocity gauge comparison (spin-free states):
   --------------------------------------------------------
 
 --------------------------------------------------
 A comparison between the dipole oscillator strengths in 
 length and velocity gauge will be performed
 
     All dipole oscillator differences above the tolerance of   1.00000000E-01  will be printed 
 
 Due to basis set deficiency these oscillator may be problematic 
 
 The tolerance is defined as ABS(1-O_l/O_v) 
 O_l : dipole oscillator strength in length gauge
 O_p : dipole oscillator strength in velocity gauge
 --------------------------------------------------
 
  Problematic transitions have been found
 
      From   To       Difference (%) Osc. st. (len.) Osc. st. (vel.)
     ---------------------------------------------------------------
         1    3            97.276833  1.10820390E-04  4.06954015E-03
         1    4            16.016672  2.07639731E-02  2.47239227E-02
         1    5           156.620998  6.34078165E-03  2.47087406E-03
         1    6            25.085560  9.57651550E-01  7.65597202E-01
         2    3          1084.713649  7.89302615E-03  6.66239150E-04
         2    5            73.536186  3.51816841E-03  2.02733995E-03
         2    6            33.561636  8.06078024E-03  6.03525118E-03
         3    4            56.547871  5.75649855E-03  1.32479091E-02
         7    8            38.040825  8.76984038E-03  1.41542239E-02
         4    5            55.287822  2.94253289E-03  6.58105463E-03
         4    6      --------------- below threshold  7.99859690E-03
         5    6      ---------------  9.34917423E-05 below threshold
     ---------------------------------------------------------------
 
 Number of problematic transitions =                     12
 
--
 
 Electric-dipole - electric-octupole not included
 Electric-dipole - magnetic-quadrupole not included
 
 
 
      ****************************************************************************************************
      *                                                                                                  *
      *                                         Spin-orbit section                                       *
      *                                                                                                  *
      ****************************************************************************************************
 
 
 Complex SO-Hamiltonian matrix elements over
 spin components of spin-free eigenstates (SFS):
 (In cm-1. Print threshold:      0.000 cm-1)
 ----------------------------------------------------------------------
 
  I1  S1  MS1    I2  S2  MS2    Real part    Imag part      Absolute
     1  0.0  0.0    1  0.0  0.0         0.000         0.000         0.000
     2  0.0  0.0    1  0.0  0.0         0.000         0.000         0.000
     2  0.0  0.0    2  0.0  0.0         0.000         0.000         0.000
     3  0.0  0.0    1  0.0  0.0         0.000         0.000         0.000
     3  0.0  0.0    2  0.0  0.0         0.000         0.000         0.000
     3  0.0  0.0    3  0.0  0.0         0.000         0.000         0.000
     4  0.0  0.0    1  0.0  0.0         0.000         0.000         0.000
     4  0.0  0.0    2  0.0  0.0         0.000         0.000         0.000
     4  0.0  0.0    3  0.0  0.0         0.000         0.000         0.000
     4  0.0  0.0    4  0.0  0.0         0.000         0.000         0.000
     5  0.0  0.0    1  0.0  0.0         0.000         0.000         0.000
     5  0.0  0.0    2  0.0  0.0         0.000         0.000         0.000
     5  0.0  0.0    3  0.0  0.0         0.000         0.000         0.000
     5  0.0  0.0    4  0.0  0.0         0.000         0.000         0.000
     5  0.0  0.0    5  0.0  0.0         0.000         0.000         0.000
     6  0.0  0.0    1  0.0  0.0         0.000         0.000         0.000
     6  0.0  0.0    2  0.0  0.0         0.000         0.000         0.000
     6  0.0  0.0    3  0.0  0.0         0.000         0.000         0.000
     6  0.0  0.0    4  0.0  0.0         0.000         0.000         0.000
     6  0.0  0.0    5  0.0  0.0         0.000         0.000         0.000
     6  0.0  0.0    6  0.0  0.0         0.000         0.000         0.000
     7  0.5 -0.5    1  0.0  0.0         0.000         0.000         0.000
     7  0.5 -0.5    2  0.0  0.0         0.000         0.000         0.000
     7  0.5 -0.5    3  0.0  0.0         0.000         0.000         0.000
     7  0.5 -0.5    4  0.0  0.0         0.000         0.000         0.000
     7  0.5 -0.5    5  0.0  0.0         0.000         0.000         0.000
     7  0.5 -0.5    6  0.0  0.0         0.000         0.000         0.000
     7  0.5 -0.5    7  0.5 -0.5         0.000         0.000         0.000
     8  0.5  0.5    1  0.0  0.0         0.000         0.000         0.000
     8  0.5  0.5    2  0.0  0.0         0.000         0.000         0.000
     8  0.5  0.5    3  0.0  0.0         0.000         0.000         0.000
     8  0.5  0.5    4  0.0  0.0         0.000         0.000         0.000
     8  0.5  0.5    5  0.0  0.0         0.000         0.000         0.000
     8  0.5  0.5    6  0.0  0.0         0.000         0.000         0.000
     8  0.5  0.5    7  0.5 -0.5        -0.000        -0.000         0.000
     8  0.5  0.5    8  0.5  0.5         0.000        -0.000         0.000
     9  0.5 -0.5    1  0.0  0.0         0.000         0.000         0.000
     9  0.5 -0.5    2  0.0  0.0         0.000         0.000         0.000
     9  0.5 -0.5    3  0.0  0.0         0.000         0.000         0.000
     9  0.5 -0.5    4  0.0  0.0         0.000         0.000         0.000
     9  0.5 -0.5    5  0.0  0.0         0.000         0.000         0.000
     9  0.5 -0.5    6  0.0  0.0         0.000         0.000         0.000
     9  0.5 -0.5    7  0.5 -0.5         0.000         0.000         0.000
     9  0.5 -0.5    8  0.5  0.5       157.407        -0.081       157.407
     9  0.5 -0.5    9  0.5 -0.5         0.000        -0.000         0.000
    10  0.5  0.5    1  0.0  0.0         0.000         0.000         0.000
    10  0.5  0.5    2  0.0  0.0         0.000         0.000         0.000
    10  0.5  0.5    3  0.0  0.0         0.000         0.000         0.000
    10  0.5  0.5    4  0.0  0.0         0.000         0.000         0.000
    10  0.5  0.5    5  0.0  0.0         0.000         0.000         0.000
    10  0.5  0.5    6  0.0  0.0         0.000         0.000         0.000
    10  0.5  0.5    7  0.5 -0.5      -157.407        -0.081       157.407
    10  0.5  0.5    8  0.5  0.5         0.000        -0.000         0.000
    10  0.5  0.5    9  0.5 -0.5        -0.000        -0.000         0.000
    10  0.5  0.5   10  0.5  0.5         0.000         0.000         0.000
 ----------------------------------------------------------------------
 
       Total energies including SO-coupling:
::    SO-RASSI State    1     Total energy:    -398.69153827959479
::    SO-RASSI State    2     Total energy:    -398.50819965760439
::    SO-RASSI State    3     Total energy:    -398.47857530078142
::    SO-RASSI State    4     Total energy:    -398.36770446316245
::    SO-RASSI State    5     Total energy:    -398.36770446316245
::    SO-RASSI State    6     Total energy:    -398.35192378688134
::    SO-RASSI State    7     Total energy:    -398.34587780923636
::    SO-RASSI State    8     Total energy:    -398.28241942023794
::    SO-RASSI State    9     Total energy:    -398.23363140229293
::    SO-RASSI State   10     Total energy:    -398.23363140229293
 
 
   Eigenvalues of complex Hamiltonian:
   -----------------------------------
  (Shifted by EMIN (a.u.) =       -398.6915382796)
 
 SO State       Relative EMIN(au)   Rel lowest level(eV)    D:o, cm**(-1)
 
     1             0.0000000000        0.0000000000              0.0000
     2             0.1833386220        4.9888980568          40238.1765
     3             0.2129629788        5.7950178726          46739.9713
     4             0.3238338164        8.8119670585          71073.3075
     5             0.3238338164        8.8119670585          71073.3075
     6             0.3396144927        9.2413811360          74536.7656
     7             0.3456604704        9.4059005689          75863.7043
     8             0.4091188594       11.1326913025          89791.2108
     9             0.4579068773       12.4602809030         100498.9431
    10             0.4579068773       12.4602809030         100498.9431
 
 
 Weights of the five most important spin-orbit-free states for each spin-orbit s
 tate.
 
 SO State  Total energy (au)           Spin-free states, spin, and weights
 -------------------------------------------------------------------------------
 ------------------------
    1         0.000000       1 0.0  1.0000    8 0.5  0.0000    7 0.5  0.0000    6 0.0  0.0000    5 0.0  0.0000
    2         0.183339       2 0.0  1.0000    8 0.5  0.0000    7 0.5  0.0000    6 0.0  0.0000    5 0.0  0.0000
    3         0.212963       3 0.0  1.0000    8 0.5  0.0000    7 0.5  0.0000    6 0.0  0.0000    5 0.0  0.0000
    4         0.323834       7 0.5  1.0000    8 0.5  0.0000    6 0.0  0.0000    5 0.0  0.0000    4 0.0  0.0000
    5         0.323834       7 0.5  1.0000    8 0.5  0.0000    6 0.0  0.0000    5 0.0  0.0000    4 0.0  0.0000
    6         0.339614       4 0.0  1.0000    8 0.5  0.0000    7 0.5  0.0000    6 0.0  0.0000    5 0.0  0.0000
    7         0.345660       5 0.0  1.0000    8 0.5  0.0000    7 0.5  0.0000    6 0.0  0.0000    4 0.0  0.0000
    8         0.409119       6 0.0  1.0000    8 0.5  0.0000    7 0.5  0.0000    5 0.0  0.0000    4 0.0  0.0000
    9         0.457907       8 0.5  1.0000    7 0.5  0.0000    6 0.0  0.0000    5 0.0  0.0000    4 0.0  0.0000
   10         0.457907       8 0.5  1.0000    7 0.5  0.0000    6 0.0  0.0000    5 0.0  0.0000    4 0.0  0.0000
 -------------------------------------------------------------------------------
 ------------------------
 
 
      ****************************************************************************************************
      *                                                                                                  *
      *                                    Special properties section                                    *
      *                                                                                                  *
      ****************************************************************************************************
 
 
++ Dipole transition strengths (SO states):
   ----------------------------------------
        for osc. strength at least   1.00000000E-05
 
      From   To        Osc. strength     Einstein coefficients Ax, Ay, Az (sec-1)    Total A (sec-1)
     -----------------------------------------------------------------------------------------------
         1    3       1.10820390E-04  1.61487377E+05  4.55777931E-02  3.01946253E-02  1.61487453E+05
         1    6       2.07639731E-02  1.37854837E+01  9.11645813E-04  7.69473546E+07  7.69473684E+07
         1    7       6.34078165E-03  6.39439058E+00  2.43418175E+07  1.96038936E-03  2.43418239E+07
         1    8       9.57651550E-01  1.35570920E+03  5.15011925E+09  2.92099857E-03  5.15012061E+09
         2    3       7.89302615E-03  5.84973334E-02  2.22562593E+05  2.08460232E-07  2.22562651E+05
         2    7       3.51816841E-03  2.97838802E+06  7.83002438E-01  5.32902069E-01  2.97838933E+06
         2    8       8.06078024E-03  1.32026048E+07  3.48179869E+00  2.36601750E+00  1.32026106E+07
         3    6       5.75649855E-03  2.96681087E+06  7.81560616E-01  5.31297876E-01  2.96681219E+06
         4    9       8.77034232E-03  5.06535976E+06  1.27853676E+00  8.39230194E-01  5.06536188E+06
         5   10       8.77034232E-03  5.06535976E+06  1.27853676E+00  8.39230194E-01  5.06536188E+06
         6    7       2.94253289E-03  9.07991349E-04  3.45593185E+03  3.52356159E-09  3.45593276E+03
         7    8       9.34917423E-05  2.17172574E-03  1.78692233E-07  1.20965673E+04  1.20965694E+04
     -----------------------------------------------------------------------------------------------
--
 
++ Velocity transition strengths (SO states):
   ------------------------------------------
        for osc. strength at least   1.00000000E-05
 
      From   To        Osc. strength     Einstein coefficients Ax, Ay, Az (sec-1)    Total A (sec-1)
     -----------------------------------------------------------------------------------------------
         1    3       4.06954015E-03  5.93013053E+06  1.57876637E+00  1.07366877E+00  5.93013318E+06
         1    6       2.47239227E-02  1.64100064E+01  4.16947967E-04  9.16221783E+07  9.16221947E+07
         1    7       2.47087406E-03  2.48861157E+00  9.48551276E+06  2.26202849E-03  9.48551525E+06
         1    8       7.65597202E-01  1.08357774E+03  4.11727719E+09  2.42334748E-03  4.11727828E+09
         2    3       6.66239150E-04  5.00608825E-03  1.87861929E+04  7.40501236E-08  1.87861979E+04
         2    7       2.02733995E-03  1.71629220E+06  4.53644272E-01  3.08570831E-01  1.71629296E+06
         2    8       6.03525118E-03  9.88502773E+06  2.60600049E+00  1.77452229E+00  9.88503211E+06
         3    6       1.32479091E-02  6.82776873E+06  1.79700357E+00  1.22607746E+00  6.82777175E+06
         4    9       1.41517938E-02  8.17344687E+06  2.08738588E+00  1.29581422E+00  8.17345025E+06
         5   10       1.41517938E-02  8.17344687E+06  2.08738588E+00  1.29581422E+00  8.17345025E+06
         6    7       6.58105463E-03  2.03740056E-03  7.72928533E+03  1.02958520E-09  7.72928737E+03
         6    8       7.99859690E-03  3.26040568E-01  1.24150582E+06  5.12409982E-07  1.24150615E+06
     -----------------------------------------------------------------------------------------------
--
 
++ Length and velocity gauge comparison (SO states):
 
 --------------------------------------------------
 A comparison between the dipole oscillator strengths in 
 length and velocity gauge will be performed
 
     All dipole oscillator differences above the tolerance of   1.00000000E-01  will be printed 
 
 Due to basis set deficiency these oscillator may be problematic 
 
 The tolerance is defined as ABS(1-O_l/O_v) 
 O_l : dipole oscillator strength in length gauge
 O_p : dipole oscillator strength in velocity gauge
 --------------------------------------------------
 
  Problematic transitions have been found
 
      From   To       Difference (%) Osc. st. (len.) Osc. st. (vel.)
     ---------------------------------------------------------------
         1    3            97.276833  1.10820390E-04  4.06954015E-03
         1    6            16.016672  2.07639731E-02  2.47239227E-02
         1    7           156.620998  6.34078165E-03  2.47087406E-03
         1    8            25.085560  9.57651550E-01  7.65597202E-01
         2    3          1084.713649  7.89302615E-03  6.66239150E-04
         2    7            73.536186  3.51816841E-03  2.02733995E-03
         2    8            33.561636  8.06078024E-03  6.03525118E-03
         3    6            56.547871  5.75649855E-03  1.32479091E-02
         4    9            38.026638  8.77034232E-03  1.41517938E-02
         5   10            38.026638  8.77034232E-03  1.41517938E-02
         6    7            55.287822  2.94253289E-03  6.58105463E-03
         6    8      --------------- below threshold  7.99859690E-03
         7    8      ---------------  9.34917423E-05 below threshold
     ---------------------------------------------------------------
 
 Number of problematic transitions =                     13
 
--
 
 Electric-dipole - electric-octupole not included
++ I/O STATISTICS
 
  I. General I/O information
  - - - - - - - - - - - - - - - - - - - - - - - - - - - - - - - - - - - - - - - - - - -
  Unit  Name          Flsize      Write/Read            MBytes           Write/Read
                      (MBytes)       Calls              In/Out           Time, sec.
  - - - - - - - - - - - - - - - - - - - - - - - - - - - - - - - - - - - - - - - - - - -
   1  ANNI              0.00 .       0/       0 .      0.0/      0.0 .       0/       0
   2  RUNFILE           0.26 .     322/    5388 .      2.3/     39.1 .       0/       0
   3  ONEINT            1.46 .       0/    2144 .      0.0/   1944.4 .       0/       0
   4  JOB001            1.22 .       0/      69 .      0.0/      1.1 .       0/       0
   5  JOB002            1.22 .       0/      45 .      0.0/      1.1 .       0/       0
  - - - - - - - - - - - - - - - - - - - - - - - - - - - - - - - - - - - - - - - - - - -
   *  TOTAL             4.16 .     322/    7646 .      2.3/   1985.7 .       0/       0
  - - - - - - - - - - - - - - - - - - - - - - - - - - - - - - - - - - - - - - - - - - -
 
  II. I/O Access Patterns
  - - - - - - - - - - - - - - - - - - - -
  Unit  Name               % of random
                         Write/Read calls
  - - - - - - - - - - - - - - - - - - - -
   1  ANNI                 0.0/   0.0
   2  RUNFILE             28.6/  10.7
   3  ONEINT               0.0/  97.6
   4  JOB001               0.0/  68.1
   5  JOB002               0.0/  77.8
  - - - - - - - - - - - - - - - - - - - -
--
--- Stop Module: rassi at Fri Mar 22 11:46:14 2024 /rc=_RC_ALL_IS_WELL_ ---
--- Module rassi spent 3 seconds ---

.##################.
.# Happy landing! #.
.##################.

    Timing: Wall=22.35 User=19.26 System=2.90
